<?xml version="1.0" encoding="UTF-8"?>

<!-- generated on 2025-08-23 15:04:00 by Eclipse SUMO GUI Version 1.22.0
<sumoConfiguration xmlns:xsi="http://www.w3.org/2001/XMLSchema-instance" xsi:noNamespaceSchemaLocation="http://sumo.dlr.de/xsd/sumoConfiguration.xsd">

    <input>
        <net-file value="I:\UNIP\TCC\SUMO\Arq.Base\grid.net.xml"/>
        <route-files value="I:\UNIP\TCC\SUMO\Arq.Base\traffic.rou.xml"/>
        <additional-files value="I:\UNIP\TCC\SUMO\Arq.Base\detectores.add.xml"/>
    </input>

    <output>
        <emission-output value="I:\UNIP\TCC\SUMO\simulation_output\conservative_output\emission.xml"/>
        <tripinfo-output value="I:\UNIP\TCC\SUMO\simulation_output\conservative_output\tripinfo.xml"/>
    </output>

    <time>
        <begin value="0"/>
        <end value="3600"/>
    </time>

    <processing>
        <ignore-route-errors value="true"/>
    </processing>

    <report>
        <verbose value="true"/>
        <duration-log.statistics value="true"/>
        <no-step-log value="true"/>
    </report>

    <traci_server>
        <remote-port value="55025"/>
    </traci_server>

    <gui_only>
        <quit-on-end value="true"/>
        <start value="true"/>
    </gui_only>

</sumoConfiguration>
-->

<tripinfos xmlns:xsi="http://www.w3.org/2001/XMLSchema-instance" xsi:noNamespaceSchemaLocation="http://sumo.dlr.de/xsd/tripinfo_file.xsd">
    <tripinfo id="F_car_H_A0D0.0" depart="0.00" departLane="A0B0_0" departPos="5.10" departSpeed="0.00" departDelay="0.00" arrival="48.00" arrivalLane="C0D0_0" arrivalPos="200.00" arrivalSpeed="13.28" duration="48.00" routeLength="594.90" waitingTime="0.00" waitingCount="0" stopTime="0.00" timeLoss="4.95" rerouteNo="0" devices="tripinfo_F_car_H_A0D0.0 emissions_F_car_H_A0D0.0" vType="car" speedFactor="1.06" vaporized="">
        <emissions CO_abs="1566.821369" CO2_abs="135662.343888" HC_abs="10.143429" PMx_abs="2.080570" NOx_abs="52.570537" fuel_abs="43270.124738" electricity_abs="0"/>
    </tripinfo>
    <tripinfo id="F_car_H_A0D0.1" depart="15.00" departLane="A0B0_0" departPos="5.10" departSpeed="0.00" departDelay="0.00" arrival="63.00" arrivalLane="C0D0_0" arrivalPos="200.00" arrivalSpeed="12.79" duration="48.00" routeLength="594.90" waitingTime="0.00" waitingCount="0" stopTime="0.00" timeLoss="4.76" rerouteNo="0" devices="tripinfo_F_car_H_A0D0.1 emissions_F_car_H_A0D0.1" vType="car" speedFactor="1.05" vaporized="">
        <emissions CO_abs="1363.658364" CO2_abs="132426.705735" HC_abs="8.949584" PMx_abs="1.813338" NOx_abs="49.508371" fuel_abs="42238.247427" electricity_abs="0"/>
    </tripinfo>
    <tripinfo id="F_car_H_A0D0.2" depart="30.00" departLane="A0B0_0" departPos="5.10" departSpeed="0.00" departDelay="0.00" arrival="79.00" arrivalLane="C0D0_0" arrivalPos="200.00" arrivalSpeed="13.72" duration="49.00" routeLength="594.90" waitingTime="0.00" waitingCount="0" stopTime="0.00" timeLoss="5.29" rerouteNo="0" devices="tripinfo_F_car_H_A0D0.2 emissions_F_car_H_A0D0.2" vType="car" speedFactor="1.09" vaporized="">
        <emissions CO_abs="1655.477136" CO2_abs="136434.192887" HC_abs="10.475596" PMx_abs="2.093950" NOx_abs="52.696304" fuel_abs="43516.354463" electricity_abs="0"/>
    </tripinfo>
    <tripinfo id="F_car_H_D0A0.0" depart="0.00" departLane="D0C0_0" departPos="5.10" departSpeed="0.00" departDelay="0.00" arrival="80.00" arrivalLane="B0A0_0" arrivalPos="200.00" arrivalSpeed="13.01" duration="80.00" routeLength="594.90" waitingTime="25.00" waitingCount="1" stopTime="0.00" timeLoss="34.20" rerouteNo="0" devices="tripinfo_F_car_H_D0A0.0 emissions_F_car_H_D0A0.0" vType="car" speedFactor="0.94" vaporized="">
        <emissions CO_abs="6381.353602" CO2_abs="230520.159770" HC_abs="34.236159" PMx_abs="4.188522" NOx_abs="94.596121" fuel_abs="73527.016560" electricity_abs="0"/>
    </tripinfo>
    <tripinfo id="F_car_V_B0B3.0" depart="0.00" departLane="B0B1_0" departPos="5.10" departSpeed="0.00" departDelay="0.00" arrival="87.00" arrivalLane="B2B3_0" arrivalPos="200.00" arrivalSpeed="13.63" duration="87.00" routeLength="594.90" waitingTime="34.00" waitingCount="1" stopTime="0.00" timeLoss="43.26" rerouteNo="0" devices="tripinfo_F_car_V_B0B3.0 emissions_F_car_V_B0B3.0" vType="car" speedFactor="1.01" vaporized="">
        <emissions CO_abs="8047.167528" CO2_abs="259937.306566" HC_abs="42.506879" PMx_abs="5.052672" NOx_abs="108.496523" fuel_abs="82910.129676" electricity_abs="0"/>
    </tripinfo>
    <tripinfo id="F_car_V_B3B0.0" depart="0.00" departLane="B3B2_0" departPos="5.10" departSpeed="0.00" departDelay="0.00" arrival="87.00" arrivalLane="B1B0_0" arrivalPos="200.00" arrivalSpeed="12.88" duration="87.00" routeLength="594.90" waitingTime="33.00" waitingCount="1" stopTime="0.00" timeLoss="43.39" rerouteNo="0" devices="tripinfo_F_car_V_B3B0.0 emissions_F_car_V_B3B0.0" vType="car" speedFactor="1.08" vaporized="">
        <emissions CO_abs="7818.914107" CO2_abs="251328.094545" HC_abs="41.282634" PMx_abs="4.838666" NOx_abs="104.660221" fuel_abs="80164.194423" electricity_abs="0"/>
    </tripinfo>
    <tripinfo id="F_car_H_A0D0.3" depart="45.00" departLane="A0B0_0" departPos="5.10" departSpeed="0.00" departDelay="0.00" arrival="94.00" arrivalLane="C0D0_0" arrivalPos="200.00" arrivalSpeed="13.32" duration="49.00" routeLength="594.90" waitingTime="0.00" waitingCount="0" stopTime="0.00" timeLoss="5.23" rerouteNo="0" devices="tripinfo_F_car_H_A0D0.3 emissions_F_car_H_A0D0.3" vType="car" speedFactor="0.99" vaporized="">
        <emissions CO_abs="1561.033479" CO2_abs="137485.545679" HC_abs="10.098768" PMx_abs="2.016585" NOx_abs="52.488679" fuel_abs="43851.737674" electricity_abs="0"/>
    </tripinfo>
    <tripinfo id="F_car_H_D0A0.1" depart="15.00" departLane="D0C0_0" departPos="5.10" departSpeed="0.00" departDelay="0.00" arrival="98.00" arrivalLane="B0A0_0" arrivalPos="200.00" arrivalSpeed="12.02" duration="83.00" routeLength="594.90" waitingTime="25.00" waitingCount="1" stopTime="0.00" timeLoss="34.49" rerouteNo="0" devices="tripinfo_F_car_H_D0A0.1 emissions_F_car_H_D0A0.1" vType="car" speedFactor="0.89" vaporized="">
        <emissions CO_abs="6604.874102" CO2_abs="228621.397681" HC_abs="35.300045" PMx_abs="4.112148" NOx_abs="93.682016" fuel_abs="72921.616665" electricity_abs="0"/>
    </tripinfo>
    <tripinfo id="F_car_H_D0A0.2" depart="30.00" departLane="D0C0_0" departPos="5.10" departSpeed="0.00" departDelay="0.00" arrival="100.00" arrivalLane="B0A0_0" arrivalPos="200.00" arrivalSpeed="12.95" duration="70.00" routeLength="594.90" waitingTime="13.00" waitingCount="1" stopTime="0.00" timeLoss="26.71" rerouteNo="0" devices="tripinfo_F_car_H_D0A0.2 emissions_F_car_H_D0A0.2" vType="car" speedFactor="1.03" vaporized="">
        <emissions CO_abs="4939.391245" CO2_abs="210035.540494" HC_abs="27.231540" PMx_abs="3.781169" NOx_abs="86.003280" fuel_abs="66992.695875" electricity_abs="0"/>
    </tripinfo>
    <tripinfo id="F_car_H_D0A0.3" depart="45.00" departLane="D0C0_0" departPos="5.10" departSpeed="0.00" departDelay="0.00" arrival="102.00" arrivalLane="B0A0_0" arrivalPos="200.00" arrivalSpeed="12.14" duration="57.00" routeLength="594.90" waitingTime="0.00" waitingCount="0" stopTime="0.00" timeLoss="10.38" rerouteNo="0" devices="tripinfo_F_car_H_D0A0.3 emissions_F_car_H_D0A0.3" vType="car" speedFactor="0.93" vaporized="">
        <emissions CO_abs="2307.598368" CO2_abs="163773.866680" HC_abs="14.136000" PMx_abs="2.513230" NOx_abs="63.973137" fuel_abs="52236.668459" electricity_abs="0"/>
    </tripinfo>
    <tripinfo id="F_car_H_A0D0.4" depart="60.00" departLane="A0B0_0" departPos="5.10" departSpeed="0.00" departDelay="0.00" arrival="112.00" arrivalLane="C0D0_0" arrivalPos="200.00" arrivalSpeed="12.98" duration="52.00" routeLength="594.90" waitingTime="0.00" waitingCount="0" stopTime="0.00" timeLoss="5.41" rerouteNo="0" devices="tripinfo_F_car_H_A0D0.4 emissions_F_car_H_A0D0.4" vType="car" speedFactor="0.94" vaporized="">
        <emissions CO_abs="1581.786532" CO2_abs="135457.093716" HC_abs="10.149144" PMx_abs="1.902379" NOx_abs="51.390805" fuel_abs="43204.869892" electricity_abs="0"/>
    </tripinfo>
    <tripinfo id="F_car_H_A0D0.5" depart="75.00" departLane="A0B0_0" departPos="5.10" departSpeed="0.00" departDelay="0.00" arrival="125.00" arrivalLane="C0D0_0" arrivalPos="200.00" arrivalSpeed="12.30" duration="50.00" routeLength="594.90" waitingTime="0.00" waitingCount="0" stopTime="0.00" timeLoss="5.39" rerouteNo="0" devices="tripinfo_F_car_H_A0D0.5 emissions_F_car_H_A0D0.5" vType="car" speedFactor="0.97" vaporized="">
        <emissions CO_abs="1481.712272" CO2_abs="132379.528105" HC_abs="9.593410" PMx_abs="1.849712" NOx_abs="49.941409" fuel_abs="42223.238053" electricity_abs="0"/>
    </tripinfo>
    <tripinfo id="F_car_H_D0A0.4" depart="60.00" departLane="D0C0_0" departPos="5.10" departSpeed="0.00" departDelay="0.00" arrival="142.00" arrivalLane="B0A0_0" arrivalPos="200.00" arrivalSpeed="13.80" duration="82.00" routeLength="594.90" waitingTime="28.00" waitingCount="1" stopTime="0.00" timeLoss="38.44" rerouteNo="0" devices="tripinfo_F_car_H_D0A0.4 emissions_F_car_H_D0A0.4" vType="car" speedFactor="1.16" vaporized="">
        <emissions CO_abs="6978.849824" CO2_abs="237123.838234" HC_abs="37.012530" PMx_abs="4.426196" NOx_abs="97.895197" fuel_abs="75633.460334" electricity_abs="0"/>
    </tripinfo>
    <tripinfo id="F_car_H_A0D0.6" depart="90.00" departLane="A0B0_0" departPos="5.10" departSpeed="0.00" departDelay="0.00" arrival="142.00" arrivalLane="C0D0_0" arrivalPos="200.00" arrivalSpeed="11.85" duration="52.00" routeLength="594.90" waitingTime="0.00" waitingCount="0" stopTime="0.00" timeLoss="4.65" rerouteNo="0" devices="tripinfo_F_car_H_A0D0.6 emissions_F_car_H_A0D0.6" vType="car" speedFactor="0.92" vaporized="">
        <emissions CO_abs="1467.320400" CO2_abs="133442.320976" HC_abs="9.565878" PMx_abs="1.809158" NOx_abs="50.055590" fuel_abs="42562.277860" electricity_abs="0"/>
    </tripinfo>
    <tripinfo id="F_car_V_B0B3.1" depart="15.00" departLane="B0B1_0" departPos="5.10" departSpeed="0.00" departDelay="0.00" arrival="155.00" arrivalLane="B2B3_0" arrivalPos="200.00" arrivalSpeed="12.79" duration="140.00" routeLength="594.90" waitingTime="78.00" waitingCount="2" stopTime="0.00" timeLoss="93.70" rerouteNo="0" devices="tripinfo_F_car_V_B0B3.1 emissions_F_car_V_B0B3.1" vType="car" speedFactor="0.94" vaporized="">
        <emissions CO_abs="16089.828038" CO2_abs="396484.502914" HC_abs="82.342193" PMx_abs="8.333874" NOx_abs="170.824818" fuel_abs="126465.145335" electricity_abs="0"/>
    </tripinfo>
    <tripinfo id="F_car_H_A0D0.7" depart="105.00" departLane="A0B0_0" departPos="5.10" departSpeed="0.00" departDelay="0.00" arrival="155.00" arrivalLane="C0D0_0" arrivalPos="200.00" arrivalSpeed="13.52" duration="50.00" routeLength="594.90" waitingTime="0.00" waitingCount="0" stopTime="0.00" timeLoss="6.35" rerouteNo="0" devices="tripinfo_F_car_H_A0D0.7 emissions_F_car_H_A0D0.7" vType="car" speedFactor="1.18" vaporized="">
        <emissions CO_abs="1828.715043" CO2_abs="150463.294574" HC_abs="11.638253" PMx_abs="2.317306" NOx_abs="58.375758" fuel_abs="47990.999858" electricity_abs="0"/>
    </tripinfo>
    <tripinfo id="F_car_V_B3B0.1" depart="15.00" departLane="B3B2_0" departPos="5.10" departSpeed="0.00" departDelay="0.00" arrival="156.00" arrivalLane="B1B0_0" arrivalPos="200.00" arrivalSpeed="10.88" duration="141.00" routeLength="594.90" waitingTime="74.00" waitingCount="2" stopTime="0.00" timeLoss="90.72" rerouteNo="0" devices="tripinfo_F_car_V_B3B0.1 emissions_F_car_V_B3B0.1" vType="car" speedFactor="0.86" vaporized="">
        <emissions CO_abs="15511.868086" CO2_abs="374270.947475" HC_abs="79.349523" PMx_abs="7.888283" NOx_abs="161.774487" fuel_abs="119379.951684" electricity_abs="0"/>
    </tripinfo>
    <tripinfo id="F_car_V_B0B3.2" depart="30.00" departLane="B0B1_0" departPos="5.10" departSpeed="0.00" departDelay="0.00" arrival="157.00" arrivalLane="B2B3_0" arrivalPos="200.00" arrivalSpeed="13.47" duration="127.00" routeLength="594.90" waitingTime="64.00" waitingCount="2" stopTime="0.00" timeLoss="83.22" rerouteNo="0" devices="tripinfo_F_car_V_B0B3.2 emissions_F_car_V_B0B3.2" vType="car" speedFactor="1.05" vaporized="">
        <emissions CO_abs="14319.231437" CO2_abs="372772.983941" HC_abs="73.778693" PMx_abs="7.904294" NOx_abs="161.055753" fuel_abs="118901.374725" electricity_abs="0"/>
    </tripinfo>
    <tripinfo id="F_bus_V_C0C3.0" depart="0.00" departLane="C0C1_0" departPos="12.10" departSpeed="0.00" departDelay="0.00" arrival="158.00" arrivalLane="C2C3_0" arrivalPos="200.00" arrivalSpeed="10.58" duration="158.00" routeLength="587.90" waitingTime="85.00" waitingCount="2" stopTime="0.00" timeLoss="104.99" rerouteNo="0" devices="tripinfo_F_bus_V_C0C3.0 emissions_F_bus_V_C0C3.0" vType="bus" speedFactor="1.03" vaporized="">
        <emissions CO_abs="17848.220581" CO2_abs="406361.544054" HC_abs="90.694027" PMx_abs="8.393434" NOx_abs="174.683610" fuel_abs="129616.605150" electricity_abs="0"/>
    </tripinfo>
    <tripinfo id="F_bus_V_C3C0.0" depart="0.00" departLane="C3C2_0" departPos="12.10" departSpeed="0.00" departDelay="0.00" arrival="158.00" arrivalLane="C1C0_0" arrivalPos="200.00" arrivalSpeed="10.76" duration="158.00" routeLength="587.90" waitingTime="84.00" waitingCount="2" stopTime="0.00" timeLoss="105.01" rerouteNo="0" devices="tripinfo_F_bus_V_C3C0.0 emissions_F_bus_V_C3C0.0" vType="bus" speedFactor="0.83" vaporized="">
        <emissions CO_abs="17827.992522" CO2_abs="411535.981320" HC_abs="90.714779" PMx_abs="8.418596" NOx_abs="176.352173" fuel_abs="131267.024788" electricity_abs="0"/>
    </tripinfo>
    <tripinfo id="F_car_V_B3B0.2" depart="30.00" departLane="B3B2_0" departPos="5.10" departSpeed="0.00" departDelay="0.00" arrival="158.00" arrivalLane="B1B0_0" arrivalPos="200.00" arrivalSpeed="13.19" duration="128.00" routeLength="594.90" waitingTime="62.00" waitingCount="2" stopTime="0.00" timeLoss="84.54" rerouteNo="0" devices="tripinfo_F_car_V_B3B0.2 emissions_F_car_V_B3B0.2" vType="car" speedFactor="1.12" vaporized="">
        <emissions CO_abs="14212.440430" CO2_abs="370769.257975" HC_abs="73.334136" PMx_abs="7.906875" NOx_abs="160.748881" fuel_abs="118262.191460" electricity_abs="0"/>
    </tripinfo>
    <tripinfo id="F_car_V_B3B0.3" depart="45.00" departLane="B3B2_0" departPos="5.10" departSpeed="0.00" departDelay="0.00" arrival="160.00" arrivalLane="B1B0_0" arrivalPos="200.00" arrivalSpeed="12.47" duration="115.00" routeLength="594.90" waitingTime="48.00" waitingCount="2" stopTime="0.00" timeLoss="68.80" rerouteNo="0" devices="tripinfo_F_car_V_B3B0.3 emissions_F_car_V_B3B0.3" vType="car" speedFactor="0.94" vaporized="">
        <emissions CO_abs="11993.004794" CO2_abs="337578.690678" HC_abs="62.549997" PMx_abs="7.097980" NOx_abs="145.973546" fuel_abs="107675.078804" electricity_abs="0"/>
    </tripinfo>
    <tripinfo id="F_car_H_D0A0.5" depart="75.00" departLane="D0C0_0" departPos="5.10" departSpeed="0.00" departDelay="0.00" arrival="160.00" arrivalLane="B0A0_0" arrivalPos="200.00" arrivalSpeed="12.05" duration="85.00" routeLength="594.90" waitingTime="27.00" waitingCount="1" stopTime="0.00" timeLoss="36.51" rerouteNo="0" devices="tripinfo_F_car_H_D0A0.5 emissions_F_car_H_D0A0.5" vType="car" speedFactor="0.89" vaporized="">
        <emissions CO_abs="6897.989640" CO2_abs="236526.333521" HC_abs="36.832979" PMx_abs="4.285478" NOx_abs="97.191946" fuel_abs="75442.995548" electricity_abs="0"/>
    </tripinfo>
    <tripinfo id="F_car_V_B3B0.4" depart="60.00" departLane="B3B2_0" departPos="5.10" departSpeed="0.00" departDelay="0.00" arrival="161.00" arrivalLane="B1B0_0" arrivalPos="200.00" arrivalSpeed="13.39" duration="101.00" routeLength="594.90" waitingTime="41.00" waitingCount="1" stopTime="0.00" timeLoss="58.12" rerouteNo="0" devices="tripinfo_F_car_V_B3B0.4 emissions_F_car_V_B3B0.4" vType="car" speedFactor="1.01" vaporized="">
        <emissions CO_abs="9909.332923" CO2_abs="293311.698793" HC_abs="51.908405" PMx_abs="5.896595" NOx_abs="124.413310" fuel_abs="93555.573544" electricity_abs="0"/>
    </tripinfo>
    <tripinfo id="F_car_H_D0A0.6" depart="90.00" departLane="D0C0_0" departPos="5.10" departSpeed="0.00" departDelay="0.00" arrival="162.00" arrivalLane="B0A0_0" arrivalPos="200.00" arrivalSpeed="12.42" duration="72.00" routeLength="594.90" waitingTime="13.00" waitingCount="1" stopTime="0.00" timeLoss="26.28" rerouteNo="0" devices="tripinfo_F_car_H_D0A0.6 emissions_F_car_H_D0A0.6" vType="car" speedFactor="0.95" vaporized="">
        <emissions CO_abs="5023.922680" CO2_abs="203190.385192" HC_abs="27.529454" PMx_abs="3.733258" NOx_abs="83.905920" fuel_abs="64809.438227" electricity_abs="0"/>
    </tripinfo>
    <tripinfo id="F_car_H_D0A0.7" depart="105.00" departLane="D0C0_0" departPos="5.10" departSpeed="0.00" departDelay="0.00" arrival="164.00" arrivalLane="B0A0_0" arrivalPos="200.00" arrivalSpeed="13.79" duration="59.00" routeLength="594.90" waitingTime="0.00" waitingCount="0" stopTime="0.00" timeLoss="15.23" rerouteNo="0" devices="tripinfo_F_car_H_D0A0.7 emissions_F_car_H_D0A0.7" vType="car" speedFactor="1.15" vaporized="">
        <emissions CO_abs="3215.684711" CO2_abs="193860.914892" HC_abs="19.002943" PMx_abs="3.374195" NOx_abs="78.613270" fuel_abs="61832.935774" electricity_abs="0"/>
    </tripinfo>
    <tripinfo id="F_car_H_A0D0.8" depart="120.00" departLane="A0B0_0" departPos="5.10" departSpeed="0.00" departDelay="0.00" arrival="168.00" arrivalLane="C0D0_0" arrivalPos="200.00" arrivalSpeed="13.20" duration="48.00" routeLength="594.90" waitingTime="0.00" waitingCount="0" stopTime="0.00" timeLoss="4.57" rerouteNo="0" devices="tripinfo_F_car_H_A0D0.8 emissions_F_car_H_A0D0.8" vType="car" speedFactor="0.99" vaporized="">
        <emissions CO_abs="1306.680019" CO2_abs="138227.521421" HC_abs="8.853083" PMx_abs="1.818693" NOx_abs="51.078076" fuel_abs="44088.479159" electricity_abs="0"/>
    </tripinfo>
    <tripinfo id="F_car_H_A0D0.9" depart="135.00" departLane="A0B0_0" departPos="5.10" departSpeed="0.00" departDelay="0.00" arrival="184.00" arrivalLane="C0D0_0" arrivalPos="200.00" arrivalSpeed="13.16" duration="49.00" routeLength="594.90" waitingTime="0.00" waitingCount="0" stopTime="0.00" timeLoss="6.02" rerouteNo="0" devices="tripinfo_F_car_H_A0D0.9 emissions_F_car_H_A0D0.9" vType="car" speedFactor="1.03" vaporized="">
        <emissions CO_abs="1579.167813" CO2_abs="133210.046861" HC_abs="10.045992" PMx_abs="1.946669" NOx_abs="50.661827" fuel_abs="42488.101316" electricity_abs="0"/>
    </tripinfo>
    <tripinfo id="F_car_H_D0A0.8" depart="120.00" departLane="D0C0_0" departPos="5.10" departSpeed="0.00" departDelay="0.00" arrival="204.00" arrivalLane="B0A0_0" arrivalPos="200.00" arrivalSpeed="13.25" duration="84.00" routeLength="594.90" waitingTime="29.00" waitingCount="1" stopTime="0.00" timeLoss="40.44" rerouteNo="0" devices="tripinfo_F_car_H_D0A0.8 emissions_F_car_H_D0A0.8" vType="car" speedFactor="1.02" vaporized="">
        <emissions CO_abs="7382.497250" CO2_abs="240648.472311" HC_abs="39.155343" PMx_abs="4.663820" NOx_abs="100.634424" fuel_abs="76757.693166" electricity_abs="0"/>
    </tripinfo>
    <tripinfo id="F_car_H_A0D0.10" depart="150.00" departLane="A0B0_0" departPos="5.10" departSpeed="0.00" departDelay="0.00" arrival="204.00" arrivalLane="C0D0_0" arrivalPos="200.00" arrivalSpeed="13.77" duration="54.00" routeLength="594.90" waitingTime="1.00" waitingCount="1" stopTime="0.00" timeLoss="10.51" rerouteNo="0" devices="tripinfo_F_car_H_A0D0.10 emissions_F_car_H_A0D0.10" vType="car" speedFactor="1.04" vaporized="">
        <emissions CO_abs="2382.393430" CO2_abs="170210.330876" HC_abs="14.613417" PMx_abs="2.658429" NOx_abs="66.500867" fuel_abs="54289.558228" electricity_abs="0"/>
    </tripinfo>
    <tripinfo id="F_car_H_D0A0.9" depart="135.00" departLane="D0C0_0" departPos="5.10" departSpeed="0.00" departDelay="0.00" arrival="220.00" arrivalLane="B0A0_0" arrivalPos="200.00" arrivalSpeed="12.34" duration="85.00" routeLength="594.90" waitingTime="30.00" waitingCount="1" stopTime="0.00" timeLoss="39.56" rerouteNo="0" devices="tripinfo_F_car_H_D0A0.9 emissions_F_car_H_D0A0.9" vType="car" speedFactor="0.96" vaporized="">
        <emissions CO_abs="7141.961445" CO2_abs="238925.672230" HC_abs="37.728223" PMx_abs="4.311243" NOx_abs="97.477527" fuel_abs="76208.428353" electricity_abs="0"/>
    </tripinfo>
    <tripinfo id="F_car_H_D0A0.10" depart="150.00" departLane="D0C0_0" departPos="5.10" departSpeed="0.00" departDelay="0.00" arrival="221.00" arrivalLane="B0A0_0" arrivalPos="200.00" arrivalSpeed="12.60" duration="71.00" routeLength="594.90" waitingTime="16.00" waitingCount="1" stopTime="0.00" timeLoss="28.13" rerouteNo="0" devices="tripinfo_F_car_H_D0A0.10 emissions_F_car_H_D0A0.10" vType="car" speedFactor="1.09" vaporized="">
        <emissions CO_abs="5264.639936" CO2_abs="213073.302182" HC_abs="28.762771" PMx_abs="3.877100" NOx_abs="87.250817" fuel_abs="67961.744708" electricity_abs="0"/>
    </tripinfo>
    <tripinfo id="F_car_H_A0D0.11" depart="165.00" departLane="A0B0_0" departPos="5.10" departSpeed="0.00" departDelay="0.00" arrival="221.00" arrivalLane="C0D0_0" arrivalPos="200.00" arrivalSpeed="12.15" duration="56.00" routeLength="594.90" waitingTime="0.00" waitingCount="0" stopTime="0.00" timeLoss="6.69" rerouteNo="0" devices="tripinfo_F_car_H_A0D0.11 emissions_F_car_H_A0D0.11" vType="car" speedFactor="0.88" vaporized="">
        <emissions CO_abs="2004.934452" CO2_abs="145447.249529" HC_abs="12.453400" PMx_abs="2.214886" NOx_abs="56.941042" fuel_abs="46391.264066" electricity_abs="0"/>
    </tripinfo>
    <tripinfo id="F_car_V_B0B3.3" depart="64.00" departLane="B0B1_0" departPos="5.10" departSpeed="0.00" departDelay="19.00" arrival="222.00" arrivalLane="B2B3_0" arrivalPos="200.00" arrivalSpeed="12.12" duration="158.00" routeLength="594.90" waitingTime="96.00" waitingCount="2" stopTime="0.00" timeLoss="108.83" rerouteNo="0" devices="tripinfo_F_car_V_B0B3.3 emissions_F_car_V_B0B3.3" vType="car" speedFactor="0.88" vaporized="">
        <emissions CO_abs="18789.833782" CO2_abs="431762.735299" HC_abs="95.667372" PMx_abs="9.368263" NOx_abs="188.405107" fuel_abs="137718.170503" electricity_abs="0"/>
    </tripinfo>
    <tripinfo id="F_car_V_B3B0.5" depart="75.00" departLane="B3B2_0" departPos="5.10" departSpeed="0.00" departDelay="0.00" arrival="222.00" arrivalLane="B1B0_0" arrivalPos="200.00" arrivalSpeed="11.11" duration="147.00" routeLength="594.90" waitingTime="83.00" waitingCount="2" stopTime="0.00" timeLoss="97.76" rerouteNo="0" devices="tripinfo_F_car_V_B3B0.5 emissions_F_car_V_B3B0.5" vType="car" speedFactor="0.87" vaporized="">
        <emissions CO_abs="16961.331218" CO2_abs="395637.510240" HC_abs="86.417807" PMx_abs="8.463578" NOx_abs="171.777413" fuel_abs="126195.386922" electricity_abs="0"/>
    </tripinfo>
    <tripinfo id="F_car_V_B0B3.4" depart="67.00" departLane="B0B1_0" departPos="5.10" departSpeed="0.00" departDelay="7.00" arrival="224.00" arrivalLane="B2B3_0" arrivalPos="200.00" arrivalSpeed="13.15" duration="157.00" routeLength="594.90" waitingTime="94.00" waitingCount="2" stopTime="0.00" timeLoss="113.42" rerouteNo="0" devices="tripinfo_F_car_V_B0B3.4 emissions_F_car_V_B0B3.4" vType="car" speedFactor="1.02" vaporized="">
        <emissions CO_abs="19257.310161" CO2_abs="458302.958224" HC_abs="98.301684" PMx_abs="9.951624" NOx_abs="199.651450" fuel_abs="146183.199637" electricity_abs="0"/>
    </tripinfo>
    <tripinfo id="F_car_V_B3B0.6" depart="90.00" departLane="B3B2_0" departPos="5.10" departSpeed="0.00" departDelay="0.00" arrival="224.00" arrivalLane="B1B0_0" arrivalPos="200.00" arrivalSpeed="11.84" duration="134.00" routeLength="594.90" waitingTime="70.00" waitingCount="2" stopTime="0.00" timeLoss="87.67" rerouteNo="0" devices="tripinfo_F_car_V_B3B0.6 emissions_F_car_V_B3B0.6" vType="car" speedFactor="0.93" vaporized="">
        <emissions CO_abs="15068.546680" CO2_abs="377144.261268" HC_abs="77.427404" PMx_abs="7.986741" NOx_abs="163.285117" fuel_abs="120296.034338" electricity_abs="0"/>
    </tripinfo>
    <tripinfo id="F_bus_V_C3C0.1" depart="120.00" departLane="C3C2_0" departPos="12.10" departSpeed="0.00" departDelay="0.00" arrival="225.00" arrivalLane="C1C0_0" arrivalPos="200.00" arrivalSpeed="10.65" duration="105.00" routeLength="587.90" waitingTime="40.00" waitingCount="1" stopTime="0.00" timeLoss="51.49" rerouteNo="0" devices="tripinfo_F_bus_V_C3C0.1 emissions_F_bus_V_C3C0.1" vType="bus" speedFactor="0.90" vaporized="">
        <emissions CO_abs="9117.767193" CO2_abs="262608.220026" HC_abs="47.534269" PMx_abs="4.677582" NOx_abs="107.646535" fuel_abs="83763.145987" electricity_abs="0"/>
    </tripinfo>
    <tripinfo id="F_car_V_B3B0.7" depart="105.00" departLane="B3B2_0" departPos="5.10" departSpeed="0.00" departDelay="0.00" arrival="226.00" arrivalLane="B1B0_0" arrivalPos="200.00" arrivalSpeed="13.66" duration="121.00" routeLength="594.90" waitingTime="54.00" waitingCount="2" stopTime="0.00" timeLoss="77.45" rerouteNo="0" devices="tripinfo_F_car_V_B3B0.7 emissions_F_car_V_B3B0.7" vType="car" speedFactor="1.17" vaporized="">
        <emissions CO_abs="13108.506777" CO2_abs="361393.180352" HC_abs="68.118811" PMx_abs="7.529862" NOx_abs="155.455145" fuel_abs="115271.288489" electricity_abs="0"/>
    </tripinfo>
    <tripinfo id="F_car_V_B0B3.5" depart="75.00" departLane="B0B1_0" departPos="5.10" departSpeed="0.00" departDelay="0.00" arrival="227.00" arrivalLane="B2B3_0" arrivalPos="200.00" arrivalSpeed="11.34" duration="152.00" routeLength="594.90" waitingTime="84.00" waitingCount="2" stopTime="0.00" timeLoss="99.90" rerouteNo="0" devices="tripinfo_F_car_V_B0B3.5 emissions_F_car_V_B0B3.5" vType="car" speedFactor="0.83" vaporized="">
        <emissions CO_abs="17385.207871" CO2_abs="407424.664007" HC_abs="88.666995" PMx_abs="8.680026" NOx_abs="176.824162" fuel_abs="129955.086406" electricity_abs="0"/>
    </tripinfo>
    <tripinfo id="F_car_V_B3B0.8" depart="120.00" departLane="B3B2_0" departPos="5.10" departSpeed="0.00" departDelay="0.00" arrival="227.00" arrivalLane="B1B0_0" arrivalPos="200.00" arrivalSpeed="13.25" duration="107.00" routeLength="594.90" waitingTime="41.00" waitingCount="1" stopTime="0.00" timeLoss="64.16" rerouteNo="0" devices="tripinfo_F_car_V_B3B0.8 emissions_F_car_V_B3B0.8" vType="car" speedFactor="1.18" vaporized="">
        <emissions CO_abs="10809.607610" CO2_abs="314675.787431" HC_abs="56.607647" PMx_abs="6.608893" NOx_abs="135.971708" fuel_abs="100369.676338" electricity_abs="0"/>
    </tripinfo>
    <tripinfo id="F_car_H_D0A0.11" depart="165.00" departLane="D0C0_0" departPos="5.10" departSpeed="0.00" departDelay="0.00" arrival="228.00" arrivalLane="B0A0_0" arrivalPos="200.00" arrivalSpeed="10.95" duration="63.00" routeLength="594.90" waitingTime="2.00" waitingCount="1" stopTime="0.00" timeLoss="12.32" rerouteNo="0" devices="tripinfo_F_car_H_D0A0.11 emissions_F_car_H_D0A0.11" vType="car" speedFactor="0.85" vaporized="">
        <emissions CO_abs="2936.613484" CO2_abs="166618.989217" HC_abs="17.194395" PMx_abs="2.584511" NOx_abs="65.773059" fuel_abs="53144.449896" electricity_abs="0"/>
    </tripinfo>
    <tripinfo id="F_car_V_B0B3.6" depart="90.00" departLane="B0B1_0" departPos="5.10" departSpeed="0.00" departDelay="0.00" arrival="229.00" arrivalLane="B2B3_0" arrivalPos="200.00" arrivalSpeed="12.81" duration="139.00" routeLength="594.90" waitingTime="72.00" waitingCount="2" stopTime="0.00" timeLoss="95.63" rerouteNo="0" devices="tripinfo_F_car_V_B0B3.6 emissions_F_car_V_B0B3.6" vType="car" speedFactor="1.13" vaporized="">
        <emissions CO_abs="15957.446500" CO2_abs="398340.126118" HC_abs="81.925834" PMx_abs="8.467408" NOx_abs="172.662831" fuel_abs="127056.776131" electricity_abs="0"/>
    </tripinfo>
    <tripinfo id="F_car_H_A0D0.12" depart="180.00" departLane="A0B0_0" departPos="5.10" departSpeed="0.00" departDelay="0.00" arrival="229.00" arrivalLane="C0D0_0" arrivalPos="200.00" arrivalSpeed="13.38" duration="49.00" routeLength="594.90" waitingTime="0.00" waitingCount="0" stopTime="0.00" timeLoss="5.27" rerouteNo="0" devices="tripinfo_F_car_H_A0D0.12 emissions_F_car_H_A0D0.12" vType="car" speedFactor="1.02" vaporized="">
        <emissions CO_abs="1465.463894" CO2_abs="134354.214383" HC_abs="9.580512" PMx_abs="1.918341" NOx_abs="50.933408" fuel_abs="42853.003491" electricity_abs="0"/>
    </tripinfo>
    <tripinfo id="F_car_V_B0B3.7" depart="126.00" departLane="B0B1_0" departPos="5.10" departSpeed="0.00" departDelay="21.00" arrival="231.00" arrivalLane="B2B3_0" arrivalPos="200.00" arrivalSpeed="13.16" duration="105.00" routeLength="594.90" waitingTime="41.00" waitingCount="1" stopTime="0.00" timeLoss="61.32" rerouteNo="0" devices="tripinfo_F_car_V_B0B3.7 emissions_F_car_V_B0B3.7" vType="car" speedFactor="1.01" vaporized="">
        <emissions CO_abs="10129.743210" CO2_abs="300169.275830" HC_abs="53.038449" PMx_abs="5.987106" NOx_abs="127.253643" fuel_abs="95742.912292" electricity_abs="0"/>
    </tripinfo>
    <tripinfo id="F_car_V_B0B3.8" depart="129.00" departLane="B0B1_0" departPos="5.10" departSpeed="0.00" departDelay="9.00" arrival="233.00" arrivalLane="B2B3_0" arrivalPos="200.00" arrivalSpeed="13.15" duration="104.00" routeLength="594.90" waitingTime="40.00" waitingCount="1" stopTime="0.00" timeLoss="59.04" rerouteNo="0" devices="tripinfo_F_car_V_B0B3.8 emissions_F_car_V_B0B3.8" vType="car" speedFactor="0.97" vaporized="">
        <emissions CO_abs="9912.039283" CO2_abs="293739.470912" HC_abs="51.952841" PMx_abs="5.795931" NOx_abs="124.046672" fuel_abs="93692.131429" electricity_abs="0"/>
    </tripinfo>