<?xml version="1.0" encoding="UTF-8"?>

<!-- generated on 2025-10-08 03:24:15 by Eclipse SUMO GUI Version 1.18.0
<configuration xmlns:xsi="http://www.w3.org/2001/XMLSchema-instance" xsi:noNamespaceSchemaLocation="http://sumo.dlr.de/xsd/sumoConfiguration.xsd">

    <input>
        <net-file value="scenarios/from_osm/osm.net.xml"/>
        <route-files value="scenarios/from_osm/osm.rou.xml"/>
    </input>

    <output>
        <emission-output value="scenarios/from_osm/emissions.xml"/>
        <queue-output value="scenarios/from_osm/queueinfo.xml"/>
        <tripinfo-output value="scenarios/from_osm/tripinfo.xml"/>
    </output>

    <processing>
        <time-to-teleport value="-1"/>
    </processing>

    <traci_server>
        <remote-port value="8813"/>
    </traci_server>

    <gui_only>
        <quit-on-end value="true"/>
        <start value="true"/>
    </gui_only>

</configuration>
-->

<queue-export xmlns:xsi="http://www.w3.org/2001/XMLSchema-instance" xsi:noNamespaceSchemaLocation="http://sumo.dlr.de/xsd/queue_file.xsd">
    <data timestep="0.00">
        <lanes/>
    </data>
    <data timestep="1.00">
        <lanes>
            <lane id="-182105822#1_0" queueing_time="0.00" queueing_length="0.00" queueing_length_experimental="5.00"/>
        </lanes>
    </data>
    <data timestep="2.00">
        <lanes/>
    </data>
    <data timestep="3.00">
        <lanes/>
    </data>
    <data timestep="4.00">
        <lanes/>
    </data>
    <data timestep="5.00">
        <lanes/>
    </data>
    <data timestep="6.00">
        <lanes>
            <lane id="-173157328#3_0" queueing_time="0.00" queueing_length="0.00" queueing_length_experimental="5.00"/>
            <lane id="173075868#3_0" queueing_time="0.00" queueing_length="0.00" queueing_length_experimental="15.39"/>
        </lanes>
    </data>
    <data timestep="7.00">
        <lanes/>
    </data>
    <data timestep="8.00">
        <lanes/>
    </data>
    <data timestep="9.00">
        <lanes>
            <lane id="866973439#0_0" queueing_time="0.00" queueing_length="0.00" queueing_length_experimental="12.19"/>
        </lanes>
    </data>
    <data timestep="10.00">
        <lanes>
            <lane id="-160056863#8_0" queueing_time="0.00" queueing_length="0.00" queueing_length_experimental="6.48"/>
        </lanes>
    </data>
    <data timestep="11.00">
        <lanes>
            <lane id="353547031#0_0" queueing_time="0.00" queueing_length="0.00" queueing_length_experimental="19.31"/>
        </lanes>
    </data>
    <data timestep="12.00">
        <lanes/>
    </data>
    <data timestep="13.00">
        <lanes>
            <lane id="-539081991#0_0" queueing_time="0.00" queueing_length="0.00" queueing_length_experimental="15.16"/>
        </lanes>
    </data>
    <data timestep="14.00">
        <lanes/>
    </data>
    <data timestep="15.00">
        <lanes/>
    </data>
    <data timestep="16.00">
        <lanes>
            <lane id="-160056783#1_0" queueing_time="0.00" queueing_length="0.00" queueing_length_experimental="5.00"/>
            <lane id="-173157363#7_0" queueing_time="0.00" queueing_length="0.00" queueing_length_experimental="19.61"/>
        </lanes>
    </data>
    <data timestep="17.00">
        <lanes/>
    </data>
    <data timestep="18.00">
        <lanes>
            <lane id="173075652#0_0" queueing_time="0.00" queueing_length="0.00" queueing_length_experimental="7.82"/>
        </lanes>
    </data>
    <data timestep="19.00">
        <lanes/>
    </data>
    <data timestep="20.00">
        <lanes>
            <lane id="173075865#0_0" queueing_time="0.00" queueing_length="0.00" queueing_length_experimental="5.00"/>
        </lanes>
    </data>
    <data timestep="21.00">
        <lanes/>
    </data>
    <data timestep="22.00">
        <lanes>
            <lane id="945299997_0" queueing_time="0.00" queueing_length="0.00" queueing_length_experimental="10.76"/>
        </lanes>
    </data>
    <data timestep="23.00">
        <lanes/>
    </data>
    <data timestep="24.00">
        <lanes/>
    </data>
    <data timestep="25.00">
        <lanes>
            <lane id="-315961605#0_0" queueing_time="0.00" queueing_length="0.00" queueing_length_experimental="5.00"/>
        </lanes>
    </data>
    <data timestep="26.00">
        <lanes>
            <lane id="-315961605#0_0" queueing_time="1.00" queueing_length="5.00" queueing_length_experimental="5.00"/>
        </lanes>
    </data>
    <data timestep="27.00">
        <lanes>
            <lane id="-315961605#0_0" queueing_time="2.00" queueing_length="5.00" queueing_length_experimental="5.00"/>
        </lanes>
    </data>
    <data timestep="28.00">
        <lanes>
            <lane id="-315961605#0_0" queueing_time="3.00" queueing_length="5.00" queueing_length_experimental="5.00"/>
        </lanes>
    </data>
    <data timestep="29.00">
        <lanes>
            <lane id="-315961605#0_0" queueing_time="4.00" queueing_length="5.00" queueing_length_experimental="5.00"/>
        </lanes>
    </data>
    <data timestep="30.00">
        <lanes>
            <lane id="-315961605#0_0" queueing_time="5.00" queueing_length="5.00" queueing_length_experimental="5.00"/>
            <lane id="160177505#0_0" queueing_time="0.00" queueing_length="0.00" queueing_length_experimental="5.00"/>
        </lanes>
    </data>
    <data timestep="31.00">
        <lanes>
            <lane id="-315961605#0_0" queueing_time="6.00" queueing_length="5.00" queueing_length_experimental="5.00"/>
        </lanes>
    </data>
    <data timestep="32.00">
        <lanes>
            <lane id="-160056859#0_0" queueing_time="0.00" queueing_length="0.00" queueing_length_experimental="12.12"/>
            <lane id="-315961605#0_0" queueing_time="7.00" queueing_length="5.00" queueing_length_experimental="5.00"/>
        </lanes>
    </data>
    <data timestep="33.00">
        <lanes>
            <lane id="-315961605#0_0" queueing_time="8.00" queueing_length="5.00" queueing_length_experimental="5.00"/>
        </lanes>
    </data>
    <data timestep="34.00">
        <lanes>
            <lane id="-315961605#0_0" queueing_time="9.00" queueing_length="5.00" queueing_length_experimental="5.00"/>
        </lanes>
    </data>
    <data timestep="35.00">
        <lanes>
            <lane id="-315961605#0_0" queueing_time="10.00" queueing_length="5.00" queueing_length_experimental="5.00"/>
        </lanes>
    </data>
    <data timestep="36.00">
        <lanes>
            <lane id="-315961605#0_0" queueing_time="11.00" queueing_length="5.00" queueing_length_experimental="5.00"/>
            <lane id="654299082#0_0" queueing_time="1.00" queueing_length="5.11" queueing_length_experimental="5.11"/>
            <lane id="932630552#2_0" queueing_time="0.00" queueing_length="0.00" queueing_length_experimental="12.29"/>
        </lanes>
    </data>
    <data timestep="37.00">
        <lanes>
            <lane id=":1722427891_1_0" queueing_time="1.00" queueing_length="16.54" queueing_length_experimental="0.00"/>
            <lane id="-315961605#0_0" queueing_time="12.00" queueing_length="5.00" queueing_length_experimental="5.00"/>
            <lane id="173102118#1_0" queueing_time="0.00" queueing_length="0.00" queueing_length_experimental="12.35"/>
            <lane id="654299082#0_0" queueing_time="2.00" queueing_length="5.10" queueing_length_experimental="5.10"/>
        </lanes>
    </data>
    <data timestep="38.00">
        <lanes>
            <lane id=":1722427891_1_0" queueing_time="2.00" queueing_length="16.54" queueing_length_experimental="0.00"/>
            <lane id="-315961605#0_0" queueing_time="13.00" queueing_length="5.00" queueing_length_experimental="5.00"/>
            <lane id="654299082#0_0" queueing_time="3.00" queueing_length="5.10" queueing_length_experimental="5.10"/>
        </lanes>
    </data>
    <data timestep="39.00">
        <lanes>
            <lane id=":1722427891_1_0" queueing_time="3.00" queueing_length="16.54" queueing_length_experimental="0.00"/>
            <lane id="-315961605#0_0" queueing_time="14.00" queueing_length="5.00" queueing_length_experimental="5.00"/>
            <lane id="-971029276#6_0" queueing_time="0.00" queueing_length="0.00" queueing_length_experimental="7.54"/>
        </lanes>
    </data>
    <data timestep="40.00">
        <lanes>
            <lane id=":1722427891_1_0" queueing_time="4.00" queueing_length="16.54" queueing_length_experimental="0.00"/>
            <lane id="-315961605#0_0" queueing_time="15.00" queueing_length="5.00" queueing_length_experimental="5.00"/>
        </lanes>
    </data>
    <data timestep="41.00">
        <lanes>
            <lane id=":1722427891_1_0" queueing_time="5.00" queueing_length="16.54" queueing_length_experimental="0.00"/>
            <lane id="-315961605#0_0" queueing_time="16.00" queueing_length="5.00" queueing_length_experimental="5.00"/>
            <lane id="158257418#0_0" queueing_time="0.00" queueing_length="0.00" queueing_length_experimental="11.33"/>
        </lanes>
    </data>
    <data timestep="42.00">
        <lanes>
            <lane id="-315961605#0_0" queueing_time="17.00" queueing_length="5.00" queueing_length_experimental="5.00"/>
        </lanes>
    </data>
    <data timestep="43.00">
        <lanes>
            <lane id="-315961605#0_0" queueing_time="18.00" queueing_length="5.00" queueing_length_experimental="5.00"/>
        </lanes>
    </data>
    <data timestep="44.00">
        <lanes>
            <lane id="-315961605#0_0" queueing_time="19.00" queueing_length="5.00" queueing_length_experimental="5.00"/>
        </lanes>
    </data>
    <data timestep="45.00">
        <lanes>
            <lane id="-1041218832#10_0" queueing_time="0.00" queueing_length="0.00" queueing_length_experimental="16.85"/>
            <lane id="-315961605#0_0" queueing_time="20.00" queueing_length="5.00" queueing_length_experimental="5.00"/>
        </lanes>
    </data>
    <data timestep="46.00">
        <lanes>
            <lane id=":5718759997_0_0" queueing_time="0.00" queueing_length="0.00" queueing_length_experimental="5.98"/>
            <lane id="-315961605#0_0" queueing_time="21.00" queueing_length="5.00" queueing_length_experimental="5.00"/>
        </lanes>
    </data>
    <data timestep="47.00">
        <lanes>
            <lane id=":5718759997_0_0" queueing_time="0.00" queueing_length="0.00" queueing_length_experimental="5.84"/>
            <lane id="-315961605#0_0" queueing_time="22.00" queueing_length="5.00" queueing_length_experimental="5.00"/>
        </lanes>
    </data>
    <data timestep="48.00">
        <lanes>
            <lane id=":5718759997_0_0" queueing_time="1.00" queueing_length="5.81" queueing_length_experimental="5.81"/>
            <lane id="-315961605#0_0" queueing_time="23.00" queueing_length="5.00" queueing_length_experimental="5.00"/>
        </lanes>
    </data>
    <data timestep="49.00">
        <lanes>
            <lane id=":5718759997_0_0" queueing_time="2.00" queueing_length="5.80" queueing_length_experimental="5.80"/>
            <lane id="-315961605#0_0" queueing_time="24.00" queueing_length="5.00" queueing_length_experimental="5.00"/>
        </lanes>
    </data>
    <data timestep="50.00">
        <lanes>
            <lane id=":5718759997_0_0" queueing_time="3.00" queueing_length="5.80" queueing_length_experimental="5.80"/>
            <lane id="-315961605#0_0" queueing_time="25.00" queueing_length="5.00" queueing_length_experimental="5.00"/>
        </lanes>
    </data>
    <data timestep="51.00">
        <lanes>
            <lane id=":5718759997_0_0" queueing_time="4.00" queueing_length="5.80" queueing_length_experimental="5.80"/>
            <lane id="-315961605#0_0" queueing_time="26.00" queueing_length="5.00" queueing_length_experimental="5.00"/>
        </lanes>
    </data>
    <data timestep="52.00">
        <lanes>
            <lane id=":5718759997_0_0" queueing_time="5.00" queueing_length="5.80" queueing_length_experimental="5.80"/>
            <lane id="-315961605#0_0" queueing_time="27.00" queueing_length="5.00" queueing_length_experimental="5.00"/>
        </lanes>
    </data>
    <data timestep="53.00">
        <lanes>
            <lane id=":5718759997_0_0" queueing_time="6.00" queueing_length="5.80" queueing_length_experimental="5.80"/>
            <lane id="-315961605#0_0" queueing_time="28.00" queueing_length="5.00" queueing_length_experimental="5.00"/>
            <lane id="173163551#5_0" queueing_time="0.00" queueing_length="0.00" queueing_length_experimental="6.20"/>
        </lanes>
    </data>
    <data timestep="54.00">
        <lanes>
            <lane id=":5718759997_0_0" queueing_time="7.00" queueing_length="5.80" queueing_length_experimental="5.80"/>
            <lane id="-315961605#0_0" queueing_time="29.00" queueing_length="5.00" queueing_length_experimental="5.00"/>
            <lane id="173163551#5_0" queueing_time="0.00" queueing_length="0.00" queueing_length_experimental="6.03"/>
            <lane id="964235203#1_0" queueing_time="0.00" queueing_length="0.00" queueing_length_experimental="5.00"/>
        </lanes>
    </data>
    <data timestep="55.00">
        <lanes>
            <lane id=":5718759997_0_0" queueing_time="8.00" queueing_length="5.80" queueing_length_experimental="5.80"/>
            <lane id="-315961605#0_0" queueing_time="30.00" queueing_length="5.00" queueing_length_experimental="5.00"/>
            <lane id="173163551#5_0" queueing_time="1.00" queueing_length="6.01" queueing_length_experimental="6.01"/>
        </lanes>
    </data>
    <data timestep="56.00">
        <lanes>
            <lane id=":5718759997_0_0" queueing_time="9.00" queueing_length="5.80" queueing_length_experimental="5.80"/>
            <lane id="-315961605#0_0" queueing_time="31.00" queueing_length="5.00" queueing_length_experimental="5.00"/>
            <lane id="173163551#5_0" queueing_time="2.00" queueing_length="6.00" queueing_length_experimental="6.00"/>
        </lanes>
    </data>
    <data timestep="57.00">
        <lanes>
            <lane id=":5718759997_0_0" queueing_time="10.00" queueing_length="5.80" queueing_length_experimental="5.80"/>
            <lane id="-315961605#0_0" queueing_time="32.00" queueing_length="5.00" queueing_length_experimental="5.00"/>
            <lane id="173163551#5_0" queueing_time="3.00" queueing_length="6.00" queueing_length_experimental="6.00"/>
        </lanes>
    </data>
    <data timestep="58.00">
        <lanes>
            <lane id=":1839857542_7_0" queueing_time="0.00" queueing_length="0.00" queueing_length_experimental="5.87"/>
            <lane id=":5718759997_0_0" queueing_time="11.00" queueing_length="5.80" queueing_length_experimental="5.80"/>
            <lane id="-315961605#0_0" queueing_time="33.00" queueing_length="5.00" queueing_length_experimental="5.00"/>
            <lane id="173163551#5_0" queueing_time="4.00" queueing_length="6.00" queueing_length_experimental="6.00"/>
        </lanes>
    </data>
    <data timestep="59.00">
        <lanes>
            <lane id=":1839857542_7_0" queueing_time="1.00" queueing_length="5.81" queueing_length_experimental="5.81"/>
            <lane id=":5718759997_0_0" queueing_time="12.00" queueing_length="5.80" queueing_length_experimental="5.80"/>
            <lane id="-173157370#1_0" queueing_time="0.00" queueing_length="0.00" queueing_length_experimental="16.67"/>
            <lane id="-315961605#0_0" queueing_time="34.00" queueing_length="5.00" queueing_length_experimental="5.00"/>
            <lane id="173163551#5_0" queueing_time="5.00" queueing_length="6.00" queueing_length_experimental="6.00"/>
        </lanes>
    </data>
    <data timestep="60.00">
        <lanes>
            <lane id=":1839857542_7_0" queueing_time="2.00" queueing_length="5.80" queueing_length_experimental="5.80"/>
            <lane id=":5718759997_0_0" queueing_time="13.00" queueing_length="5.80" queueing_length_experimental="5.80"/>
            <lane id="-315961605#0_0" queueing_time="35.00" queueing_length="5.00" queueing_length_experimental="5.00"/>
            <lane id="173163551#5_0" queueing_time="6.00" queueing_length="6.00" queueing_length_experimental="6.00"/>
        </lanes>
    </data>
    <data timestep="61.00">
        <lanes>
            <lane id=":1839857542_7_0" queueing_time="3.00" queueing_length="5.80" queueing_length_experimental="5.80"/>
            <lane id=":5718759997_0_0" queueing_time="14.00" queueing_length="5.80" queueing_length_experimental="5.80"/>
            <lane id="-315961605#0_0" queueing_time="36.00" queueing_length="5.00" queueing_length_experimental="5.00"/>
            <lane id="-932630551#6_0" queueing_time="0.00" queueing_length="0.00" queueing_length_experimental="6.60"/>
            <lane id="173163551#5_0" queueing_time="7.00" queueing_length="6.00" queueing_length_experimental="6.00"/>
        </lanes>
    </data>
    <data timestep="62.00">
        <lanes>
            <lane id=":1839857542_7_0" queueing_time="4.00" queueing_length="5.80" queueing_length_experimental="5.80"/>
            <lane id=":5718759997_0_0" queueing_time="15.00" queueing_length="5.80" queueing_length_experimental="5.80"/>
            <lane id="-315961605#0_0" queueing_time="37.00" queueing_length="5.00" queueing_length_experimental="5.00"/>
            <lane id="-932630551#6_0" queueing_time="0.00" queueing_length="0.00" queueing_length_experimental="6.29"/>
            <lane id="173163551#5_0" queueing_time="8.00" queueing_length="6.00" queueing_length_experimental="6.00"/>
        </lanes>
    </data>
    <data timestep="63.00">
        <lanes>
            <lane id=":1839857542_7_0" queueing_time="5.00" queueing_length="5.80" queueing_length_experimental="5.80"/>
            <lane id=":5718759997_0_0" queueing_time="16.00" queueing_length="5.80" queueing_length_experimental="5.80"/>
            <lane id="-315961605#0_0" queueing_time="38.00" queueing_length="5.00" queueing_length_experimental="5.00"/>
            <lane id="-932630551#6_0" queueing_time="0.00" queueing_length="0.00" queueing_length_experimental="6.10"/>
            <lane id="173163551#5_0" queueing_time="9.00" queueing_length="6.00" queueing_length_experimental="6.00"/>
            <lane id="932630551#4_0" queueing_time="1.00" queueing_length="11.89" queueing_length_experimental="11.89"/>
        </lanes>
    </data>
    <data timestep="64.00">
        <lanes>
            <lane id=":1839857542_7_0" queueing_time="6.00" queueing_length="5.80" queueing_length_experimental="5.80"/>
            <lane id=":5718759997_0_0" queueing_time="17.00" queueing_length="5.80" queueing_length_experimental="5.80"/>
            <lane id="-315961605#0_0" queueing_time="39.00" queueing_length="5.00" queueing_length_experimental="5.00"/>
            <lane id="-932630551#6_0" queueing_time="1.00" queueing_length="6.03" queueing_length_experimental="6.03"/>
            <lane id="173163551#5_0" queueing_time="10.00" queueing_length="6.00" queueing_length_experimental="6.00"/>
            <lane id="932630551#4_0" queueing_time="2.00" queueing_length="11.88" queueing_length_experimental="11.88"/>
        </lanes>
    </data>
    <data timestep="65.00">
        <lanes>
            <lane id=":1839857542_7_0" queueing_time="7.00" queueing_length="5.80" queueing_length_experimental="5.80"/>
            <lane id=":5718759997_0_0" queueing_time="18.00" queueing_length="5.80" queueing_length_experimental="5.80"/>
            <lane id="-315961605#0_0" queueing_time="40.00" queueing_length="5.00" queueing_length_experimental="5.00"/>
            <lane id="-657707371_0" queueing_time="0.00" queueing_length="0.00" queueing_length_experimental="16.72"/>
            <lane id="-932630551#6_0" queueing_time="2.00" queueing_length="6.00" queueing_length_experimental="6.00"/>
            <lane id="173163551#5_0" queueing_time="11.00" queueing_length="6.00" queueing_length_experimental="6.00"/>
            <lane id="932630551#4_0" queueing_time="3.00" queueing_length="11.88" queueing_length_experimental="11.88"/>
        </lanes>
    </data>
    <data timestep="66.00">
        <lanes>
            <lane id=":1839857542_7_0" queueing_time="8.00" queueing_length="5.80" queueing_length_experimental="5.80"/>
            <lane id=":5718759997_0_0" queueing_time="19.00" queueing_length="5.80" queueing_length_experimental="5.80"/>
            <lane id="-315961605#0_0" queueing_time="41.00" queueing_length="5.00" queueing_length_experimental="5.00"/>
            <lane id="-932630551#6_0" queueing_time="3.00" queueing_length="6.00" queueing_length_experimental="6.00"/>
            <lane id="173163551#5_0" queueing_time="12.00" queueing_length="6.00" queueing_length_experimental="6.00"/>
            <lane id="932630551#4_0" queueing_time="4.00" queueing_length="11.88" queueing_length_experimental="11.88"/>
            <lane id="934352074_0" queueing_time="0.00" queueing_length="0.00" queueing_length_experimental="7.28"/>
        </lanes>
    </data>
    <data timestep="67.00">
        <lanes>
            <lane id=":1839857542_7_0" queueing_time="9.00" queueing_length="5.80" queueing_length_experimental="5.80"/>
            <lane id=":5718759997_0_0" queueing_time="20.00" queueing_length="5.80" queueing_length_experimental="5.80"/>
            <lane id="-315961605#0_0" queueing_time="42.00" queueing_length="5.00" queueing_length_experimental="5.00"/>
            <lane id="-932630551#6_0" queueing_time="4.00" queueing_length="6.00" queueing_length_experimental="6.00"/>
            <lane id="173163551#5_0" queueing_time="13.00" queueing_length="6.00" queueing_length_experimental="6.00"/>
            <lane id="470655988#2_0" queueing_time="0.00" queueing_length="0.00" queueing_length_experimental="8.06"/>
            <lane id="932630551#4_0" queueing_time="5.00" queueing_length="11.88" queueing_length_experimental="11.88"/>
        </lanes>
    </data>
    <data timestep="68.00">
        <lanes>
            <lane id=":1839857542_7_0" queueing_time="10.00" queueing_length="5.80" queueing_length_experimental="5.80"/>
            <lane id=":5718759997_0_0" queueing_time="21.00" queueing_length="5.80" queueing_length_experimental="5.80"/>
            <lane id="-315961605#0_0" queueing_time="43.00" queueing_length="5.00" queueing_length_experimental="5.00"/>
            <lane id="-932630551#6_0" queueing_time="5.00" queueing_length="6.00" queueing_length_experimental="6.00"/>
            <lane id="173163551#5_0" queueing_time="14.00" queueing_length="6.00" queueing_length_experimental="6.00"/>
            <lane id="932630551#4_0" queueing_time="6.00" queueing_length="11.88" queueing_length_experimental="11.88"/>
        </lanes>
    </data>
    <data timestep="69.00">
        <lanes>
            <lane id=":1839857542_7_0" queueing_time="11.00" queueing_length="5.80" queueing_length_experimental="5.80"/>
            <lane id=":5718759997_0_0" queueing_time="22.00" queueing_length="5.80" queueing_length_experimental="5.80"/>
            <lane id="-315961605#0_0" queueing_time="44.00" queueing_length="5.00" queueing_length_experimental="5.00"/>
            <lane id="-932630551#6_0" queueing_time="6.00" queueing_length="6.00" queueing_length_experimental="6.00"/>
            <lane id="173163551#5_0" queueing_time="15.00" queueing_length="6.00" queueing_length_experimental="6.00"/>
            <lane id="544131197#7_0" queueing_time="0.00" queueing_length="0.00" queueing_length_experimental="6.28"/>
            <lane id="932630551#4_0" queueing_time="7.00" queueing_length="11.88" queueing_length_experimental="11.88"/>
        </lanes>
    </data>
    <data timestep="70.00">
        <lanes>
            <lane id=":1839857542_7_0" queueing_time="12.00" queueing_length="5.80" queueing_length_experimental="5.80"/>
            <lane id=":5718759997_0_0" queueing_time="23.00" queueing_length="5.80" queueing_length_experimental="5.80"/>
            <lane id="-173163393#0_0" queueing_time="0.00" queueing_length="0.00" queueing_length_experimental="14.23"/>
            <lane id="-315961605#0_0" queueing_time="45.00" queueing_length="5.00" queueing_length_experimental="5.00"/>
            <lane id="-932630551#6_0" queueing_time="7.00" queueing_length="6.00" queueing_length_experimental="6.00"/>
            <lane id="173163551#5_0" queueing_time="16.00" queueing_length="6.00" queueing_length_experimental="6.00"/>
            <lane id="544131197#7_0" queueing_time="0.00" queueing_length="0.00" queueing_length_experimental="6.01"/>
            <lane id="932630551#4_0" queueing_time="8.00" queueing_length="11.88" queueing_length_experimental="11.88"/>
        </lanes>
    </data>
    <data timestep="71.00">
        <lanes>
            <lane id=":1839857542_7_0" queueing_time="13.00" queueing_length="5.80" queueing_length_experimental="5.80"/>
            <lane id=":5718759997_0_0" queueing_time="24.00" queueing_length="5.80" queueing_length_experimental="5.80"/>
            <lane id="-315961605#0_0" queueing_time="46.00" queueing_length="5.00" queueing_length_experimental="5.00"/>
            <lane id="-932630551#6_0" queueing_time="8.00" queueing_length="6.00" queueing_length_experimental="6.00"/>
            <lane id="173163551#5_0" queueing_time="17.00" queueing_length="6.00" queueing_length_experimental="6.00"/>
            <lane id="544131197#7_0" queueing_time="1.00" queueing_length="6.00" queueing_length_experimental="6.00"/>
            <lane id="932630551#4_0" queueing_time="9.00" queueing_length="11.88" queueing_length_experimental="11.88"/>
            <lane id="934441505_0" queueing_time="0.00" queueing_length="0.00" queueing_length_experimental="6.13"/>
        </lanes>
    </data>
    <data timestep="72.00">
        <lanes>
            <lane id=":1839857542_7_0" queueing_time="14.00" queueing_length="5.80" queueing_length_experimental="5.80"/>
            <lane id=":5718759997_0_0" queueing_time="25.00" queueing_length="5.80" queueing_length_experimental="5.80"/>
            <lane id="-315961605#0_0" queueing_time="47.00" queueing_length="5.00" queueing_length_experimental="5.00"/>
            <lane id="-932630551#6_0" queueing_time="9.00" queueing_length="6.00" queueing_length_experimental="6.00"/>
            <lane id="173163551#5_0" queueing_time="18.00" queueing_length="6.00" queueing_length_experimental="6.00"/>
            <lane id="544131197#7_0" queueing_time="2.00" queueing_length="6.00" queueing_length_experimental="6.00"/>
            <lane id="932630551#4_0" queueing_time="10.00" queueing_length="11.88" queueing_length_experimental="11.88"/>
            <lane id="934441505_0" queueing_time="1.00" queueing_length="6.06" queueing_length_experimental="6.06"/>
        </lanes>
    </data>
    <data timestep="73.00">
        <lanes>
            <lane id=":1839857542_7_0" queueing_time="15.00" queueing_length="5.80" queueing_length_experimental="5.80"/>
            <lane id=":5718759997_0_0" queueing_time="26.00" queueing_length="5.80" queueing_length_experimental="5.80"/>
            <lane id="-315961605#0_0" queueing_time="48.00" queueing_length="5.00" queueing_length_experimental="5.00"/>
            <lane id="-932630551#6_0" queueing_time="10.00" queueing_length="6.00" queueing_length_experimental="6.00"/>
            <lane id="173163551#5_0" queueing_time="19.00" queueing_length="6.00" queueing_length_experimental="6.00"/>
            <lane id="410045890#7_1" queueing_time="0.00" queueing_length="0.00" queueing_length_experimental="6.00"/>
            <lane id="544131197#7_0" queueing_time="3.00" queueing_length="6.00" queueing_length_experimental="6.00"/>
            <lane id="932630551#4_0" queueing_time="11.00" queueing_length="11.88" queueing_length_experimental="11.88"/>
            <lane id="934441505_0" queueing_time="2.00" queueing_length="6.01" queueing_length_experimental="6.01"/>
        </lanes>
    </data>
    <data timestep="74.00">
        <lanes>
            <lane id=":1839857542_7_0" queueing_time="16.00" queueing_length="5.80" queueing_length_experimental="5.80"/>
            <lane id=":5718759997_0_0" queueing_time="27.00" queueing_length="5.80" queueing_length_experimental="5.80"/>
            <lane id="-315961605#0_0" queueing_time="49.00" queueing_length="5.00" queueing_length_experimental="5.00"/>
            <lane id="-932630551#6_0" queueing_time="11.00" queueing_length="6.00" queueing_length_experimental="6.00"/>
            <lane id="173163551#5_0" queueing_time="20.00" queueing_length="6.00" queueing_length_experimental="6.00"/>
            <lane id="410045890#7_1" queueing_time="1.00" queueing_length="6.00" queueing_length_experimental="6.00"/>
            <lane id="544131197#7_0" queueing_time="4.00" queueing_length="6.00" queueing_length_experimental="6.00"/>
            <lane id="644486337#0_1" queueing_time="0.00" queueing_length="0.00" queueing_length_experimental="6.01"/>
            <lane id="932630551#4_0" queueing_time="12.00" queueing_length="11.88" queueing_length_experimental="11.88"/>
            <lane id="934441505_0" queueing_time="3.00" queueing_length="6.01" queueing_length_experimental="6.01"/>
        </lanes>
    </data>
    <data timestep="75.00">
        <lanes>
            <lane id=":1839857542_7_0" queueing_time="17.00" queueing_length="5.80" queueing_length_experimental="5.80"/>
            <lane id=":5718759997_0_0" queueing_time="28.00" queueing_length="5.80" queueing_length_experimental="5.80"/>
            <lane id="-315961605#0_0" queueing_time="50.00" queueing_length="5.00" queueing_length_experimental="5.00"/>
            <lane id="-932630551#6_0" queueing_time="12.00" queueing_length="6.00" queueing_length_experimental="6.00"/>
            <lane id="173163551#5_0" queueing_time="21.00" queueing_length="6.00" queueing_length_experimental="6.00"/>
            <lane id="410045890#7_1" queueing_time="2.00" queueing_length="6.00" queueing_length_experimental="6.00"/>