<?xml version="1.0" encoding="UTF-8"?>

<!-- generated on 2025-10-05 23:00:13 by Eclipse SUMO GUI Version 1.24.0
<sumoConfiguration xmlns:xsi="http://www.w3.org/2001/XMLSchema-instance" xsi:noNamespaceSchemaLocation="http://sumo.dlr.de/xsd/sumoConfiguration.xsd">

    <input>
        <net-file value="scenarios/from_osm/osm.net.xml"/>
        <route-files value="scenarios/from_osm/osm.rou.xml,scenarios/from_osm/emergency.rou.xml"/>
        <additional-files value="scenarios/from_osm/emergency_vtype.add.xml"/>
    </input>

    <output>
        <emission-output value="scenarios/from_osm/emissions.xml"/>
        <queue-output value="scenarios/from_osm/queueinfo.xml"/>
        <tripinfo-output value="scenarios/from_osm/tripinfo.xml"/>
    </output>

    <traci_server>
        <remote-port value="8813"/>
    </traci_server>

</sumoConfiguration>
-->

<queue-export xmlns:xsi="http://www.w3.org/2001/XMLSchema-instance" xsi:noNamespaceSchemaLocation="http://sumo.dlr.de/xsd/queue_file.xsd">
</queue-export>
