<?xml version="1.0" encoding="UTF-8"?>

<!-- generated on 2025-10-08 00:02:53 by Eclipse SUMO GUI Version 1.24.0
<sumoConfiguration xmlns:xsi="http://www.w3.org/2001/XMLSchema-instance" xsi:noNamespaceSchemaLocation="http://sumo.dlr.de/xsd/sumoConfiguration.xsd">

    <input>
        <net-file value="scenarios/from_osm/osm.net.xml"/>
        <route-files value="scenarios/from_osm/osm.rou.xml"/>
    </input>

    <output>
        <emission-output value="scenarios/from_osm/emissions.xml"/>
        <queue-output value="scenarios/from_osm/queueinfo.xml"/>
        <tripinfo-output value="scenarios/from_osm/tripinfo.xml"/>
    </output>

    <processing>
        <time-to-teleport value="-1"/>
    </processing>

    <report>
        <log value="logs/sumo_simulation.log"/>
    </report>

    <traci_server>
        <remote-port value="8813"/>
    </traci_server>

</sumoConfiguration>
-->

<tripinfos xmlns:xsi="http://www.w3.org/2001/XMLSchema-instance" xsi:noNamespaceSchemaLocation="http://sumo.dlr.de/xsd/tripinfo_file.xsd">
    <tripinfo id="53" depart="39.00" departLane="-160287939#1_0" departPos="5.10" departSpeed="0.00" departDelay="0.84" arrival="98.00" arrivalLane="-945598230_0" arrivalPos="14.53" arrivalSpeed="11.70" duration="59.00" routeLength="579.03" waitingTime="0.00" waitingCount="0" stopTime="0.00" timeLoss="22.57" rerouteNo="0" devices="tripinfo_53 emissions_53" vType="DEFAULT_VEHTYPE" speedFactor="1.17" vaporized="">
        <emissions CO_abs="1738.00" CO2_abs="249811.34" HC_abs="11.48" PMx_abs="14.70" NOx_abs="82.82" fuel_abs="80984.70" electricity_abs="0.00"/>
    </tripinfo>
    <tripinfo id="2" depart="2.00" departLane="173159456_0" departPos="5.10" departSpeed="0.00" departDelay="0.56" arrival="111.00" arrivalLane="173085075#0_0" arrivalPos="44.22" arrivalSpeed="14.74" duration="109.00" routeLength="1195.67" waitingTime="0.00" waitingCount="0" stopTime="0.00" timeLoss="23.25" rerouteNo="0" devices="tripinfo_2 emissions_2" vType="DEFAULT_VEHTYPE" speedFactor="1.01" vaporized="">
        <emissions CO_abs="2145.65" CO2_abs="351510.87" HC_abs="14.26" PMx_abs="29.46" NOx_abs="118.74" fuel_abs="113954.56" electricity_abs="0.00"/>
    </tripinfo>
    <tripinfo id="37" depart="27.00" departLane="173082202_0" departPos="5.10" departSpeed="0.00" departDelay="0.36" arrival="113.00" arrivalLane="-546132097_0" arrivalPos="30.97" arrivalSpeed="12.24" duration="86.00" routeLength="887.91" waitingTime="0.00" waitingCount="0" stopTime="0.00" timeLoss="17.06" rerouteNo="0" devices="tripinfo_37 emissions_37" vType="DEFAULT_VEHTYPE" speedFactor="0.97" vaporized="">
        <emissions CO_abs="1529.07" CO2_abs="259944.30" HC_abs="10.14" PMx_abs="20.13" NOx_abs="86.49" fuel_abs="84270.04" electricity_abs="0.00"/>
    </tripinfo>
    <tripinfo id="15" depart="11.00" departLane="197423567#0_0" departPos="5.10" departSpeed="0.00" departDelay="0.20" arrival="119.00" arrivalLane="173163400#3_0" arrivalPos="54.70" arrivalSpeed="13.34" duration="108.00" routeLength="1129.29" waitingTime="0.00" waitingCount="0" stopTime="0.00" timeLoss="14.54" rerouteNo="0" devices="tripinfo_15 emissions_15" vType="DEFAULT_VEHTYPE" speedFactor="0.99" vaporized="">
        <emissions CO_abs="1371.87" CO2_abs="258527.18" HC_abs="9.14" PMx_abs="24.30" NOx_abs="87.69" fuel_abs="83810.96" electricity_abs="0.00"/>
    </tripinfo>
    <tripinfo id="46" depart="34.00" departLane="187735567_0" departPos="5.10" departSpeed="0.00" departDelay="0.88" arrival="123.00" arrivalLane="-866928905#0_0" arrivalPos="34.57" arrivalSpeed="22.03" duration="89.00" routeLength="1428.71" waitingTime="0.00" waitingCount="0" stopTime="0.00" timeLoss="27.15" rerouteNo="0" devices="tripinfo_46 emissions_46" vType="DEFAULT_VEHTYPE" speedFactor="1.04" vaporized="">
        <emissions CO_abs="5341.92" CO2_abs="468215.27" HC_abs="35.67" PMx_abs="40.86" NOx_abs="176.52" fuel_abs="151787.32" electricity_abs="0.00"/>
    </tripinfo>
    <tripinfo id="60" depart="44.00" departLane="182105811#0_0" departPos="5.10" departSpeed="0.00" departDelay="0.80" arrival="126.00" arrivalLane="160056786#10_0" arrivalPos="55.15" arrivalSpeed="14.99" duration="82.00" routeLength="926.33" waitingTime="0.00" waitingCount="0" stopTime="0.00" timeLoss="18.83" rerouteNo="0" devices="tripinfo_60 emissions_60" vType="DEFAULT_VEHTYPE" speedFactor="1.14" vaporized="">
        <emissions CO_abs="1886.15" CO2_abs="286721.82" HC_abs="12.53" PMx_abs="23.26" NOx_abs="97.06" fuel_abs="92950.86" electricity_abs="0.00"/>
    </tripinfo>
    <tripinfo id="32" depart="24.00" departLane="332465801#29_0" departPos="5.10" departSpeed="0.00" departDelay="0.96" arrival="128.00" arrivalLane="196885601#11_0" arrivalPos="58.17" arrivalSpeed="16.00" duration="104.00" routeLength="1561.16" waitingTime="0.00" waitingCount="0" stopTime="0.00" timeLoss="42.45" rerouteNo="0" devices="tripinfo_32 emissions_32" vType="DEFAULT_VEHTYPE" speedFactor="1.15" vaporized="">
        <emissions CO_abs="7551.36" CO2_abs="615777.49" HC_abs="50.09" PMx_abs="46.03" NOx_abs="238.35" fuel_abs="199623.64" electricity_abs="0.00"/>
    </tripinfo>
    <tripinfo id="48" depart="35.00" departLane="967728692#1_0" departPos="5.10" departSpeed="0.00" departDelay="0.44" arrival="128.00" arrivalLane="159758967#1_0" arrivalPos="19.02" arrivalSpeed="10.43" duration="93.00" routeLength="982.91" waitingTime="0.00" waitingCount="0" stopTime="0.00" timeLoss="24.35" rerouteNo="0" devices="tripinfo_48 emissions_48" vType="DEFAULT_VEHTYPE" speedFactor="1.00" vaporized="">
        <emissions CO_abs="2232.77" CO2_abs="320619.13" HC_abs="14.80" PMx_abs="23.05" NOx_abs="108.82" fuel_abs="103939.64" electricity_abs="0.00"/>
    </tripinfo>
    <tripinfo id="13" depart="10.00" departLane="-160056863#8_0" departPos="5.10" departSpeed="0.00" departDelay="0.64" arrival="140.00" arrivalLane="-160060835_0" arrivalPos="106.15" arrivalSpeed="14.47" duration="130.00" routeLength="1210.96" waitingTime="0.00" waitingCount="0" stopTime="0.00" timeLoss="20.35" rerouteNo="0" devices="tripinfo_13 emissions_13" vType="DEFAULT_VEHTYPE" speedFactor="1.05" vaporized="">
        <emissions CO_abs="1567.99" CO2_abs="322763.08" HC_abs="10.41" PMx_abs="26.94" NOx_abs="108.36" fuel_abs="104635.31" electricity_abs="0.00"/>
    </tripinfo>
    <tripinfo id="109" depart="79.00" departLane="-173075623_0" departPos="5.10" departSpeed="0.00" departDelay="0.52" arrival="143.00" arrivalLane="-187735558_0" arrivalPos="30.94" arrivalSpeed="12.34" duration="64.00" routeLength="777.76" waitingTime="0.00" waitingCount="0" stopTime="0.00" timeLoss="22.08" rerouteNo="0" devices="tripinfo_109 emissions_109" vType="DEFAULT_VEHTYPE" speedFactor="1.01" vaporized="">
        <emissions CO_abs="2870.60" CO2_abs="294804.39" HC_abs="19.04" PMx_abs="20.50" NOx_abs="106.43" fuel_abs="95570.30" electricity_abs="0.00"/>
    </tripinfo>
    <tripinfo id="79" depart="57.00" departLane="-173157382#1_0" departPos="5.10" departSpeed="0.00" departDelay="0.12" arrival="150.00" arrivalLane="-173157406#8_0" arrivalPos="96.58" arrivalSpeed="19.62" duration="93.00" routeLength="1182.90" waitingTime="0.00" waitingCount="0" stopTime="0.00" timeLoss="23.63" rerouteNo="0" devices="tripinfo_79 emissions_79" vType="DEFAULT_VEHTYPE" speedFactor="1.03" vaporized="">
        <emissions CO_abs="3727.89" CO2_abs="394257.36" HC_abs="24.78" PMx_abs="32.70" NOx_abs="144.25" fuel_abs="127811.70" electricity_abs="0.00"/>
    </tripinfo>
    <tripinfo id="124" depart="90.00" departLane="173085038_0" departPos="5.10" departSpeed="0.00" departDelay="0.72" arrival="152.00" arrivalLane="-188825472_0" arrivalPos="41.75" arrivalSpeed="14.35" duration="62.00" routeLength="740.24" waitingTime="0.00" waitingCount="0" stopTime="0.00" timeLoss="10.86" rerouteNo="0" devices="tripinfo_124 emissions_124" vType="DEFAULT_VEHTYPE" speedFactor="1.10" vaporized="">
        <emissions CO_abs="1385.61" CO2_abs="206719.78" HC_abs="9.22" PMx_abs="18.06" NOx_abs="70.83" fuel_abs="67015.47" electricity_abs="0.00"/>
    </tripinfo>
    <tripinfo id="81" depart="59.00" departLane="-173157370#1_0" departPos="5.10" departSpeed="0.00" departDelay="0.68" arrival="156.00" arrivalLane="546860537#2_0" arrivalPos="32.50" arrivalSpeed="13.69" duration="97.00" routeLength="1165.21" waitingTime="0.00" waitingCount="0" stopTime="0.00" timeLoss="12.09" rerouteNo="0" devices="tripinfo_81 emissions_81" vType="DEFAULT_VEHTYPE" speedFactor="1.01" vaporized="">
        <emissions CO_abs="1367.81" CO2_abs="239838.27" HC_abs="9.15" PMx_abs="25.84" NOx_abs="82.79" fuel_abs="77752.35" electricity_abs="0.00"/>
    </tripinfo>
    <tripinfo id="16" depart="12.00" departLane="159758947#3_0" departPos="5.10" departSpeed="0.00" departDelay="0.48" arrival="157.00" arrivalLane="932918003_0" arrivalPos="42.42" arrivalSpeed="7.35" duration="145.00" routeLength="1957.55" waitingTime="0.00" waitingCount="0" stopTime="0.00" timeLoss="35.80" rerouteNo="0" devices="tripinfo_16 emissions_16" vType="DEFAULT_VEHTYPE" speedFactor="0.93" vaporized="">
        <emissions CO_abs="5824.74" CO2_abs="595941.78" HC_abs="38.77" PMx_abs="49.56" NOx_abs="218.11" fuel_abs="193194.44" electricity_abs="0.00"/>
    </tripinfo>
    <tripinfo id="24" depart="18.00" departLane="173075652#0_0" departPos="5.10" departSpeed="0.00" departDelay="0.72" arrival="165.00" arrivalLane="-520721251#1_0" arrivalPos="0.12" arrivalSpeed="4.62" duration="147.00" routeLength="1982.25" waitingTime="4.00" waitingCount="1" stopTime="0.00" timeLoss="38.89" rerouteNo="0" devices="tripinfo_24 emissions_24" vType="DEFAULT_VEHTYPE" speedFactor="0.89" vaporized="">
        <emissions CO_abs="4828.48" CO2_abs="528059.69" HC_abs="32.24" PMx_abs="51.22" NOx_abs="194.27" fuel_abs="171188.76" electricity_abs="0.00"/>
    </tripinfo>
    <tripinfo id="76" depart="55.00" departLane="-932630551#6_0" departPos="5.10" departSpeed="0.00" departDelay="0.28" arrival="183.00" arrivalLane="159607463_0" arrivalPos="122.37" arrivalSpeed="13.54" duration="128.00" routeLength="1651.35" waitingTime="26.00" waitingCount="1" stopTime="0.00" timeLoss="55.72" rerouteNo="0" devices="tripinfo_76 emissions_76" vType="DEFAULT_VEHTYPE" speedFactor="1.06" vaporized="">
        <emissions CO_abs="5892.55" CO2_abs="546870.75" HC_abs="39.44" PMx_abs="46.18" NOx_abs="208.50" fuel_abs="177286.53" electricity_abs="0.00"/>
    </tripinfo>
    <tripinfo id="82" depart="60.00" departLane="410045890#7_0" departPos="5.10" departSpeed="0.00" departDelay="0.96" arrival="187.00" arrivalLane="-160056774#0_0" arrivalPos="96.44" arrivalSpeed="14.24" duration="127.00" routeLength="983.07" waitingTime="46.00" waitingCount="1" stopTime="0.00" timeLoss="64.40" rerouteNo="0" devices="tripinfo_82 emissions_82" vType="DEFAULT_VEHTYPE" speedFactor="1.09" vaporized="">
        <emissions CO_abs="2045.07" CO2_abs="356652.36" HC_abs="13.60" PMx_abs="24.14" NOx_abs="126.65" fuel_abs="115621.85" electricity_abs="0.00"/>
    </tripinfo>
    <tripinfo id="133" depart="96.00" departLane="163294295#0_0" departPos="5.10" departSpeed="0.00" departDelay="0.24" arrival="187.00" arrivalLane="945299996_0" arrivalPos="180.96" arrivalSpeed="13.81" duration="91.00" routeLength="1318.54" waitingTime="0.00" waitingCount="0" stopTime="0.00" timeLoss="25.06" rerouteNo="0" devices="tripinfo_133 emissions_133" vType="DEFAULT_VEHTYPE" speedFactor="1.03" vaporized="">
        <emissions CO_abs="4754.68" CO2_abs="429621.19" HC_abs="31.64" PMx_abs="35.94" NOx_abs="162.53" fuel_abs="139275.72" electricity_abs="0.00"/>
    </tripinfo>
    <tripinfo id="21" depart="16.00" departLane="-173157363#7_0" departPos="5.10" departSpeed="0.00" departDelay="0.88" arrival="190.00" arrivalLane="-185327117_0" arrivalPos="57.73" arrivalSpeed="13.42" duration="174.00" routeLength="2149.83" waitingTime="1.00" waitingCount="1" stopTime="0.00" timeLoss="40.20" rerouteNo="0" devices="tripinfo_21 emissions_21" vType="DEFAULT_VEHTYPE" speedFactor="1.02" vaporized="">
        <emissions CO_abs="5674.37" CO2_abs="630239.83" HC_abs="37.77" PMx_abs="52.54" NOx_abs="228.55" fuel_abs="204313.55" electricity_abs="0.00"/>
    </tripinfo>
    <tripinfo id="39" depart="29.00" departLane="-173163551#3_0" departPos="5.10" departSpeed="0.00" departDelay="0.92" arrival="200.00" arrivalLane="-173163407#0_0" arrivalPos="48.62" arrivalSpeed="14.76" duration="171.00" routeLength="1625.17" waitingTime="35.00" waitingCount="1" stopTime="0.00" timeLoss="71.11" rerouteNo="0" devices="tripinfo_39 emissions_39" vType="DEFAULT_VEHTYPE" speedFactor="1.10" vaporized="">
        <emissions CO_abs="3139.06" CO2_abs="498219.50" HC_abs="20.87" PMx_abs="39.29" NOx_abs="175.53" fuel_abs="161515.79" electricity_abs="0.00"/>
    </tripinfo>
    <tripinfo id="141" depart="102.00" departLane="173075651#14_0" departPos="0.26" departSpeed="0.00" departDelay="0.48" arrival="203.00" arrivalLane="-173869738#0_0" arrivalPos="48.88" arrivalSpeed="15.17" duration="101.00" routeLength="1425.21" waitingTime="11.00" waitingCount="1" stopTime="0.00" timeLoss="35.78" rerouteNo="0" devices="tripinfo_141 emissions_141" vType="DEFAULT_VEHTYPE" speedFactor="1.00" vaporized="">
        <emissions CO_abs="4661.47" CO2_abs="429053.93" HC_abs="31.23" PMx_abs="39.38" NOx_abs="162.48" fuel_abs="139092.15" electricity_abs="0.00"/>
    </tripinfo>
    <tripinfo id="112" depart="81.00" departLane="-159598312#6_0" departPos="5.10" departSpeed="0.00" departDelay="0.36" arrival="204.00" arrivalLane="160289194_0" arrivalPos="81.55" arrivalSpeed="12.92" duration="123.00" routeLength="1413.38" waitingTime="0.00" waitingCount="0" stopTime="0.00" timeLoss="14.13" rerouteNo="0" devices="tripinfo_112 emissions_112" vType="DEFAULT_VEHTYPE" speedFactor="0.96" vaporized="">
        <emissions CO_abs="1706.39" CO2_abs="306071.31" HC_abs="11.38" PMx_abs="30.78" NOx_abs="104.83" fuel_abs="99224.20" electricity_abs="0.00"/>
    </tripinfo>
    <tripinfo id="47" depart="34.00" departLane="-159667519_0" departPos="5.10" departSpeed="0.00" departDelay="0.16" arrival="206.00" arrivalLane="-537568170_0" arrivalPos="109.63" arrivalSpeed="14.16" duration="172.00" routeLength="2327.19" waitingTime="0.00" waitingCount="0" stopTime="0.00" timeLoss="42.34" rerouteNo="0" devices="tripinfo_47 emissions_47" vType="DEFAULT_VEHTYPE" speedFactor="1.09" vaporized="">
        <emissions CO_abs="7493.99" CO2_abs="745297.39" HC_abs="49.88" PMx_abs="60.97" NOx_abs="274.13" fuel_abs="241612.85" electricity_abs="0.00"/>
    </tripinfo>
    <tripinfo id="167" depart="121.00" departLane="520721251#0_0" departPos="5.10" departSpeed="0.00" departDelay="0.76" arrival="206.00" arrivalLane="532714427#0_0" arrivalPos="35.80" arrivalSpeed="13.93" duration="85.00" routeLength="1200.45" waitingTime="0.00" waitingCount="0" stopTime="0.00" timeLoss="25.95" rerouteNo="0" devices="tripinfo_167 emissions_167" vType="DEFAULT_VEHTYPE" speedFactor="1.13" vaporized="">
        <emissions CO_abs="4617.94" CO2_abs="413299.95" HC_abs="30.71" PMx_abs="33.13" NOx_abs="156.30" fuel_abs="133984.52" electricity_abs="0.00"/>
    </tripinfo>
    <tripinfo id="139" depart="101.00" departLane="-182105804#0_0" departPos="5.10" departSpeed="0.00" departDelay="0.92" arrival="209.00" arrivalLane="163335438#4_0" arrivalPos="10.28" arrivalSpeed="7.00" duration="108.00" routeLength="1226.15" waitingTime="0.00" waitingCount="0" stopTime="0.00" timeLoss="25.44" rerouteNo="0" devices="tripinfo_139 emissions_139" vType="DEFAULT_VEHTYPE" speedFactor="1.12" vaporized="">
        <emissions CO_abs="2377.49" CO2_abs="344837.67" HC_abs="15.78" PMx_abs="27.84" NOx_abs="117.34" fuel_abs="111791.07" electricity_abs="0.00"/>
    </tripinfo>
    <tripinfo id="210" depart="152.00" departLane="-652919170_0" departPos="5.10" departSpeed="0.00" departDelay="0.80" arrival="209.00" arrivalLane="173075651#16_0" arrivalPos="10.35" arrivalSpeed="17.31" duration="57.00" routeLength="632.85" waitingTime="0.00" waitingCount="0" stopTime="0.00" timeLoss="16.63" rerouteNo="0" devices="tripinfo_210 emissions_210" vType="DEFAULT_VEHTYPE" speedFactor="1.11" vaporized="">
        <emissions CO_abs="1491.01" CO2_abs="207917.59" HC_abs="9.88" PMx_abs="15.64" NOx_abs="71.14" fuel_abs="67403.62" electricity_abs="0.00"/>
    </tripinfo>
    <tripinfo id="65" depart="47.00" departLane="-208937196#2_0" departPos="5.10" departSpeed="0.00" departDelay="0.20" arrival="216.00" arrivalLane="-159607450_0" arrivalPos="87.45" arrivalSpeed="14.06" duration="169.00" routeLength="1700.54" waitingTime="42.00" waitingCount="1" stopTime="0.00" timeLoss="79.95" rerouteNo="0" devices="tripinfo_65 emissions_65" vType="DEFAULT_VEHTYPE" speedFactor="1.02" vaporized="">
        <emissions CO_abs="5681.63" CO2_abs="623879.60" HC_abs="37.76" PMx_abs="44.84" NOx_abs="232.27" fuel_abs="202251.82" electricity_abs="0.00"/>
    </tripinfo>
    <tripinfo id="87" depart="63.00" departLane="197423567#0_0" departPos="5.10" departSpeed="0.00" departDelay="0.36" arrival="219.00" arrivalLane="-173102111#1_0" arrivalPos="32.55" arrivalSpeed="14.99" duration="156.00" routeLength="2028.41" waitingTime="27.00" waitingCount="1" stopTime="0.00" timeLoss="70.18" rerouteNo="0" devices="tripinfo_87 emissions_87" vType="DEFAULT_VEHTYPE" speedFactor="1.15" vaporized="">
        <emissions CO_abs="9877.10" CO2_abs="816525.16" HC_abs="65.63" PMx_abs="61.84" NOx_abs="321.52" fuel_abs="264702.74" electricity_abs="0.00"/>
    </tripinfo>
    <tripinfo id="4" depart="3.00" departLane="-657337395_0" departPos="5.10" departSpeed="0.00" departDelay="0.12" arrival="220.00" arrivalLane="-157940059#6_0" arrivalPos="87.02" arrivalSpeed="13.57" duration="217.00" routeLength="2726.09" waitingTime="3.00" waitingCount="1" stopTime="0.00" timeLoss="59.46" rerouteNo="0" devices="tripinfo_4 emissions_4" vType="DEFAULT_VEHTYPE" speedFactor="1.03" vaporized="">
        <emissions CO_abs="7702.24" CO2_abs="859284.62" HC_abs="51.18" PMx_abs="68.13" NOx_abs="308.53" fuel_abs="278565.99" electricity_abs="0.00"/>
    </tripinfo>
    <tripinfo id="110" depart="80.00" departLane="932552022_0" departPos="5.10" departSpeed="0.00" departDelay="0.80" arrival="228.00" arrivalLane="160287960#0_0" arrivalPos="16.70" arrivalSpeed="10.73" duration="148.00" routeLength="2631.02" waitingTime="0.00" waitingCount="0" stopTime="0.00" timeLoss="32.11" rerouteNo="0" devices="tripinfo_110 emissions_110" vType="DEFAULT_VEHTYPE" speedFactor="1.03" vaporized="">
        <emissions CO_abs="8790.58" CO2_abs="728141.27" HC_abs="58.86" PMx_abs="73.17" NOx_abs="281.40" fuel_abs="236051.20" electricity_abs="0.00"/>
    </tripinfo>
    <tripinfo id="52" depart="38.00" departLane="-173163574#0_0" departPos="5.10" departSpeed="0.00" departDelay="0.56" arrival="232.00" arrivalLane="173075802_0" arrivalPos="83.36" arrivalSpeed="10.99" duration="194.00" routeLength="2303.93" waitingTime="0.00" waitingCount="0" stopTime="0.00" timeLoss="38.56" rerouteNo="0" devices="tripinfo_52 emissions_52" vType="DEFAULT_VEHTYPE" speedFactor="0.85" vaporized="">
        <emissions CO_abs="4808.74" CO2_abs="608701.35" HC_abs="32.07" PMx_abs="54.32" NOx_abs="215.77" fuel_abs="197331.67" electricity_abs="0.00"/>
    </tripinfo>
    <tripinfo id="143" depart="103.00" departLane="334682518_0" departPos="5.10" departSpeed="0.00" departDelay="0.04" arrival="233.00" arrivalLane="-160056863#10_0" arrivalPos="205.83" arrivalSpeed="11.61" duration="130.00" routeLength="1476.33" waitingTime="0.00" waitingCount="0" stopTime="0.00" timeLoss="21.25" rerouteNo="0" devices="tripinfo_143 emissions_143" vType="DEFAULT_VEHTYPE" speedFactor="1.11" vaporized="">
        <emissions CO_abs="2133.18" CO2_abs="366398.05" HC_abs="14.21" PMx_abs="34.62" NOx_abs="124.49" fuel_abs="118781.06" electricity_abs="0.00"/>
    </tripinfo>
    <tripinfo id="58" depart="42.00" departLane="-196932504_0" departPos="5.10" departSpeed="0.00" departDelay="0.24" arrival="234.00" arrivalLane="173075773_0" arrivalPos="156.29" arrivalSpeed="12.65" duration="192.00" routeLength="2773.28" waitingTime="0.00" waitingCount="0" stopTime="0.00" timeLoss="50.56" rerouteNo="0" devices="tripinfo_58 emissions_58" vType="DEFAULT_VEHTYPE" speedFactor="1.00" vaporized="">
        <emissions CO_abs="9961.57" CO2_abs="903855.00" HC_abs="66.31" PMx_abs="77.21" NOx_abs="341.30" fuel_abs="293014.27" electricity_abs="0.00"/>
    </tripinfo>
    <tripinfo id="121" depart="88.00" departLane="159598306#1_0" departPos="5.10" departSpeed="0.00" departDelay="0.88" arrival="235.00" arrivalLane="654320593#5_0" arrivalPos="76.75" arrivalSpeed="10.52" duration="147.00" routeLength="1894.43" waitingTime="4.00" waitingCount="1" stopTime="0.00" timeLoss="35.36" rerouteNo="0" devices="tripinfo_121 emissions_121" vType="DEFAULT_VEHTYPE" speedFactor="0.99" vaporized="">
        <emissions CO_abs="5045.60" CO2_abs="517418.09" HC_abs="33.69" PMx_abs="46.73" NOx_abs="192.79" fuel_abs="167738.57" electricity_abs="0.00"/>
    </tripinfo>
    <tripinfo id="74" depart="54.00" departLane="-173085052#1_0" departPos="5.10" departSpeed="0.00" departDelay="0.72" arrival="236.00" arrivalLane="-197423567#0_0" arrivalPos="22.20" arrivalSpeed="11.95" duration="182.00" routeLength="2758.33" waitingTime="0.00" waitingCount="0" stopTime="0.00" timeLoss="42.92" rerouteNo="0" devices="tripinfo_74 emissions_74" vType="DEFAULT_VEHTYPE" speedFactor="0.97" vaporized="">
        <emissions CO_abs="10007.08" CO2_abs="871772.45" HC_abs="66.61" PMx_abs="74.10" NOx_abs="332.99" fuel_abs="282613.39" electricity_abs="0.00"/>
    </tripinfo>
    <tripinfo id="27" depart="20.00" departLane="173075865#0_0" departPos="1.06" departSpeed="0.00" departDelay="0.56" arrival="237.00" arrivalLane="173070186#2_0" arrivalPos="14.57" arrivalSpeed="11.49" duration="217.00" routeLength="1670.17" waitingTime="77.00" waitingCount="2" stopTime="0.00" timeLoss="110.67" rerouteNo="0" devices="tripinfo_27 emissions_27" vType="DEFAULT_VEHTYPE" speedFactor="0.92" vaporized="">
        <emissions CO_abs="4142.33" CO2_abs="607436.38" HC_abs="27.56" PMx_abs="40.66" NOx_abs="221.61" fuel_abs="196922.27" electricity_abs="0.00"/>
    </tripinfo>
    <tripinfo id="14" depart="11.00" departLane="353547031#0_0" departPos="5.10" departSpeed="0.00" departDelay="0.92" arrival="238.00" arrivalLane="163335433#11_0" arrivalPos="11.12" arrivalSpeed="15.01" duration="227.00" routeLength="3115.23" waitingTime="3.00" waitingCount="2" stopTime="0.00" timeLoss="67.81" rerouteNo="0" devices="tripinfo_14 emissions_14" vType="DEFAULT_VEHTYPE" speedFactor="1.12" vaporized="">
        <emissions CO_abs="10021.63" CO2_abs="965468.50" HC_abs="66.60" PMx_abs="79.18" NOx_abs="360.73" fuel_abs="312988.49" electricity_abs="0.00"/>
    </tripinfo>
    <tripinfo id="84" depart="61.00" departLane="-173157283#1_0" departPos="5.10" departSpeed="0.00" departDelay="0.52" arrival="239.00" arrivalLane="-163335438#0_0" arrivalPos="5.24" arrivalSpeed="12.60" duration="178.00" routeLength="2248.57" waitingTime="0.00" waitingCount="0" stopTime="0.00" timeLoss="36.00" rerouteNo="0" devices="tripinfo_84 emissions_84" vType="DEFAULT_VEHTYPE" speedFactor="1.00" vaporized="">
        <emissions CO_abs="5015.72" CO2_abs="596851.15" HC_abs="33.41" PMx_abs="53.54" NOx_abs="214.15" fuel_abs="193489.76" electricity_abs="0.00"/>
    </tripinfo>
    <tripinfo id="105" depart="76.00" departLane="-173163552#0_0" departPos="5.10" departSpeed="0.00" departDelay="0.40" arrival="246.00" arrivalLane="197203911#5_0" arrivalPos="18.84" arrivalSpeed="12.47" duration="170.00" routeLength="2255.93" waitingTime="0.00" waitingCount="0" stopTime="0.00" timeLoss="34.29" rerouteNo="0" devices="tripinfo_105 emissions_105" vType="DEFAULT_VEHTYPE" speedFactor="0.97" vaporized="">
        <emissions CO_abs="7141.70" CO2_abs="696820.93" HC_abs="47.51" PMx_abs="59.78" NOx_abs="260.95" fuel_abs="225897.69" electricity_abs="0.00"/>
    </tripinfo>
    <tripinfo id="169" depart="122.00" departLane="1163037322#1_0" departPos="5.10" departSpeed="0.00" departDelay="0.32" arrival="246.00" arrivalLane="-196932514#1_0" arrivalPos="45.73" arrivalSpeed="12.39" duration="124.00" routeLength="1533.97" waitingTime="0.00" waitingCount="0" stopTime="0.00" timeLoss="24.62" rerouteNo="0" devices="tripinfo_169 emissions_169" vType="DEFAULT_VEHTYPE" speedFactor="0.91" vaporized="">
        <emissions CO_abs="3823.80" CO2_abs="434125.11" HC_abs="25.53" PMx_abs="40.07" NOx_abs="157.62" fuel_abs="140736.65" electricity_abs="0.00"/>
    </tripinfo>
    <tripinfo id="236" depart="170.00" departLane="-654022533_0" departPos="5.10" departSpeed="0.00" departDelay="0.08" arrival="246.00" arrivalLane="-173157345_0" arrivalPos="172.10" arrivalSpeed="13.09" duration="76.00" routeLength="775.36" waitingTime="0.00" waitingCount="0" stopTime="0.00" timeLoss="15.75" rerouteNo="0" devices="tripinfo_236 emissions_236" vType="DEFAULT_VEHTYPE" speedFactor="0.99" vaporized="">
        <emissions CO_abs="1324.47" CO2_abs="236127.18" HC_abs="8.80" PMx_abs="19.59" NOx_abs="78.69" fuel_abs="76548.97" electricity_abs="0.00"/>
    </tripinfo>
    <tripinfo id="137" depart="99.00" departLane="-163335426#0_0" departPos="5.10" departSpeed="0.00" departDelay="0.36" arrival="249.00" arrivalLane="-160289210#0_0" arrivalPos="27.82" arrivalSpeed="14.03" duration="150.00" routeLength="1900.99" waitingTime="0.00" waitingCount="0" stopTime="0.00" timeLoss="28.38" rerouteNo="0" devices="tripinfo_137 emissions_137" vType="DEFAULT_VEHTYPE" speedFactor="1.23" vaporized="">
        <emissions CO_abs="4033.21" CO2_abs="522869.13" HC_abs="26.82" PMx_abs="45.28" NOx_abs="182.17" fuel_abs="169506.19" electricity_abs="0.00"/>
    </tripinfo>
    <tripinfo id="0" depart="0.00" departLane="173075668#0_0" departPos="5.10" departSpeed="0.00" departDelay="0.00" arrival="261.00" arrivalLane="-157161074#7_0" arrivalPos="131.11" arrivalSpeed="13.56" duration="261.00" routeLength="3576.64" waitingTime="35.00" waitingCount="1" stopTime="0.00" timeLoss="86.88" rerouteNo="0" devices="tripinfo_0 emissions_0" vType="DEFAULT_VEHTYPE" speedFactor="1.06" vaporized="">
        <emissions CO_abs="11174.99" CO2_abs="1062886.10" HC_abs="74.88" PMx_abs="99.25" NOx_abs="403.02" fuel_abs="344570.74" electricity_abs="0.00"/>
    </tripinfo>
    <tripinfo id="5" depart="4.00" departLane="-173157323#1_0" departPos="5.10" departSpeed="0.00" departDelay="0.40" arrival="261.00" arrivalLane="159598275#1_0" arrivalPos="38.85" arrivalSpeed="10.40" duration="257.00" routeLength="3623.95" waitingTime="0.00" waitingCount="0" stopTime="0.00" timeLoss="42.16" rerouteNo="0" devices="tripinfo_5 emissions_5" vType="DEFAULT_VEHTYPE" speedFactor="0.83" vaporized="">
        <emissions CO_abs="8075.33" CO2_abs="870369.80" HC_abs="54.13" PMx_abs="90.28" NOx_abs="318.10" fuel_abs="282160.60" electricity_abs="0.00"/>
    </tripinfo>
    <tripinfo id="217" depart="157.00" departLane="159598289#2_0" departPos="5.10" departSpeed="0.00" departDelay="0.76" arrival="263.00" arrivalLane="-159598297_0" arrivalPos="171.03" arrivalSpeed="14.11" duration="106.00" routeLength="1261.21" waitingTime="0.00" waitingCount="0" stopTime="0.00" timeLoss="36.54" rerouteNo="0" devices="tripinfo_217 emissions_217" vType="DEFAULT_VEHTYPE" speedFactor="1.10" vaporized="">
        <emissions CO_abs="4006.88" CO2_abs="439284.26" HC_abs="26.56" PMx_abs="33.09" NOx_abs="158.72" fuel_abs="142408.52" electricity_abs="0.00"/>
    </tripinfo>
    <tripinfo id="90" depart="65.00" departLane="173159430#0_0" departPos="5.10" departSpeed="0.00" departDelay="0.20" arrival="265.00" arrivalLane="173085046_0" arrivalPos="39.71" arrivalSpeed="13.24" duration="200.00" routeLength="2512.52" waitingTime="1.00" waitingCount="1" stopTime="0.00" timeLoss="47.62" rerouteNo="0" devices="tripinfo_90 emissions_90" vType="DEFAULT_VEHTYPE" speedFactor="1.04" vaporized="">
        <emissions CO_abs="5327.69" CO2_abs="661409.51" HC_abs="35.47" PMx_abs="60.86" NOx_abs="236.08" fuel_abs="214418.82" electricity_abs="0.00"/>
    </tripinfo>
    <tripinfo id="154" depart="111.00" departLane="196885601#6_0" departPos="5.10" departSpeed="0.00" departDelay="0.12" arrival="265.00" arrivalLane="533142955_0" arrivalPos="42.70" arrivalSpeed="12.71" duration="154.00" routeLength="2186.32" waitingTime="2.00" waitingCount="1" stopTime="0.00" timeLoss="39.49" rerouteNo="0" devices="tripinfo_154 emissions_154" vType="DEFAULT_VEHTYPE" speedFactor="0.96" vaporized="">
        <emissions CO_abs="6283.19" CO2_abs="616306.17" HC_abs="41.86" PMx_abs="55.18" NOx_abs="230.09" fuel_abs="199796.24" electricity_abs="0.00"/>
    </tripinfo>
    <tripinfo id="172" depart="124.00" departLane="-385949107_0" departPos="5.10" departSpeed="0.00" departDelay="0.16" arrival="269.00" arrivalLane="533828802#1_0" arrivalPos="67.84" arrivalSpeed="21.58" duration="145.00" routeLength="2044.51" waitingTime="0.00" waitingCount="0" stopTime="0.00" timeLoss="20.65" rerouteNo="0" devices="tripinfo_172 emissions_172" vType="DEFAULT_VEHTYPE" speedFactor="0.98" vaporized="">
        <emissions CO_abs="4471.52" CO2_abs="496539.70" HC_abs="29.95" PMx_abs="51.73" NOx_abs="180.79" fuel_abs="160970.63" electricity_abs="0.00"/>
    </tripinfo>
    <tripinfo id="127" depart="92.00" departLane="971029276#8_0" departPos="2.69" departSpeed="0.00" departDelay="0.56" arrival="270.00" arrivalLane="970011737_0" arrivalPos="0.20" arrivalSpeed="3.10" duration="178.00" routeLength="2792.73" waitingTime="0.00" waitingCount="0" stopTime="0.00" timeLoss="34.69" rerouteNo="0" devices="tripinfo_127 emissions_127" vType="DEFAULT_VEHTYPE" speedFactor="1.06" vaporized="">
        <emissions CO_abs="7620.68" CO2_abs="720920.63" HC_abs="50.90" PMx_abs="73.69" NOx_abs="272.71" fuel_abs="233710.92" electricity_abs="0.00"/>
    </tripinfo>