<?xml version="1.0" encoding="UTF-8"?>

<!-- generated on 2025-09-23 01:07:12 by Eclipse SUMO GUI Version 1.24.0
<sumoConfiguration xmlns:xsi="http://www.w3.org/2001/XMLSchema-instance" xsi:noNamespaceSchemaLocation="http://sumo.dlr.de/xsd/sumoConfiguration.xsd">

    <input>
        <net-file value="osm.net.xml"/>
        <route-files value="osm.passenger.trips.xml,osm.motorcycle.trips.xml,osm.truck.trips.xml,osm.bus.trips.xml,osm.pedestrian.trips.xml"/>
        <additional-files value="osm_stops.add.xml,osm_ptlines.xml"/>
    </input>

    <output>
        <tripinfo-output value="tripinfo.xml"/>
        <stop-output value="stopinfos.xml"/>
        <statistic-output value="stats.xml"/>
    </output>

    <processing>
        <ignore-route-errors value="true"/>
        <tls.actuated.jam-threshold value="30"/>
    </processing>

    <routing>
        <device.rerouting.adaptation-steps value="18"/>
        <device.rerouting.adaptation-interval value="10"/>
    </routing>

    <report>
        <verbose value="true"/>
        <log value="/media/pereira/BKP_EXT/TCC_SUMO/logs/sumo_output.log"/>
        <duration-log.statistics value="true"/>
        <no-step-log value="true"/>
    </report>

    <traci_server>
        <remote-port value="8813"/>
    </traci_server>

    <gui_only>
        <gui-settings-file value="osm.view.xml"/>
    </gui_only>

</sumoConfiguration>
-->

<tripinfos xmlns:xsi="http://www.w3.org/2001/XMLSchema-instance" xsi:noNamespaceSchemaLocation="http://sumo.dlr.de/xsd/tripinfo_file.xsd">
    <tripinfo id="motorcycle1" depart="2.00" departLane="158280260_0" departPos="2.30" departSpeed="0.00" departDelay="0.43" arrival="63.00" arrivalLane="158257428#5_0" arrivalPos="68.05" arrivalSpeed="14.78" duration="61.00" routeLength="667.75" waitingTime="0.00" waitingCount="0" stopTime="0.00" timeLoss="12.90" rerouteNo="1" devices="tripinfo_motorcycle1 routing_motorcycle1" vType="motorcycle_motorcycle" speedFactor="1.08" vaporized=""/>
    <tripinfo id="motorcycle27" depart="43.00" departLane="187566920_0" departPos="2.30" departSpeed="14.87" departDelay="0.58" arrival="63.00" arrivalLane="173075549#2_0" arrivalPos="44.44" arrivalSpeed="12.71" duration="20.00" routeLength="193.88" waitingTime="0.00" waitingCount="0" stopTime="0.00" timeLoss="4.19" rerouteNo="1" devices="tripinfo_motorcycle27 routing_motorcycle27" vType="motorcycle_motorcycle" speedFactor="1.07" vaporized=""/>
    <tripinfo id="veh38" depart="20.00" departLane="-182105830#1_0" departPos="5.10" departSpeed="0.00" departDelay="0.10" arrival="72.00" arrivalLane="-134667407#9_0" arrivalPos="11.43" arrivalSpeed="14.25" duration="52.00" routeLength="554.14" waitingTime="0.00" waitingCount="0" stopTime="0.00" timeLoss="11.85" rerouteNo="1" devices="tripinfo_veh38 routing_veh38" vType="veh_passenger" speedFactor="1.04" vaporized=""/>
    <tripinfo id="motorcycle7" depart="11.00" departLane="866913244_0" departPos="2.30" departSpeed="0.00" departDelay="0.00" arrival="77.00" arrivalLane="-173157321_0" arrivalPos="290.17" arrivalSpeed="14.32" duration="66.00" routeLength="876.62" waitingTime="0.00" waitingCount="0" stopTime="0.00" timeLoss="9.76" rerouteNo="1" devices="tripinfo_motorcycle7 routing_motorcycle7" vType="motorcycle_motorcycle" speedFactor="1.14" vaporized=""/>
    <tripinfo id="veh57" depart="30.00" departLane="160056869#0_0" departPos="5.10" departSpeed="13.71" departDelay="0.15" arrival="82.00" arrivalLane="-160056774#0_0" arrivalPos="96.44" arrivalSpeed="12.50" duration="52.00" routeLength="559.86" waitingTime="0.00" waitingCount="0" stopTime="0.00" timeLoss="8.51" rerouteNo="1" devices="tripinfo_veh57 routing_veh57" vType="veh_passenger" speedFactor="0.99" vaporized=""/>
    <tripinfo id="motorcycle0" depart="0.00" departLane="-537568168#0_0" departPos="2.30" departSpeed="0.00" departDelay="0.00" arrival="90.00" arrivalLane="515551630#0_0" arrivalPos="25.02" arrivalSpeed="12.88" duration="90.00" routeLength="1010.90" waitingTime="0.00" waitingCount="0" stopTime="0.00" timeLoss="14.94" rerouteNo="1" devices="tripinfo_motorcycle0 routing_motorcycle0" vType="motorcycle_motorcycle" speedFactor="1.01" vaporized=""/>
    <tripinfo id="veh52" depart="28.00" departLane="173082213#2_0" departPos="5.10" departSpeed="0.00" departDelay="0.77" arrival="90.00" arrivalLane="599505132#3_0" arrivalPos="78.43" arrivalSpeed="13.53" duration="62.00" routeLength="766.96" waitingTime="0.00" waitingCount="0" stopTime="0.00" timeLoss="6.92" rerouteNo="1" devices="tripinfo_veh52 routing_veh52" vType="veh_passenger" speedFactor="1.02" vaporized=""/>
    <tripinfo id="motorcycle20" depart="32.00" departLane="185327125_0" departPos="2.30" departSpeed="0.00" departDelay="0.58" arrival="92.00" arrivalLane="-173102133#1_0" arrivalPos="58.88" arrivalSpeed="13.27" duration="60.00" routeLength="588.97" waitingTime="0.00" waitingCount="0" stopTime="0.00" timeLoss="16.89" rerouteNo="1" devices="tripinfo_motorcycle20 routing_motorcycle20" vType="motorcycle_motorcycle" speedFactor="1.01" vaporized=""/>
    <tripinfo id="veh61" depart="32.00" departLane="163291391#3_0" departPos="5.10" departSpeed="0.00" departDelay="0.05" arrival="97.00" arrivalLane="159758947#6_0" arrivalPos="21.37" arrivalSpeed="8.95" duration="65.00" routeLength="608.19" waitingTime="0.00" waitingCount="0" stopTime="0.00" timeLoss="13.69" rerouteNo="1" devices="tripinfo_veh61 routing_veh61" vType="veh_passenger" speedFactor="0.91" vaporized=""/>
    <personinfo id="ped0" depart="0.00" type="ped_pedestrian" speedFactor="1.05" duration="99.00" waitingTime="2.00" timeLoss="10.76" traveltime="99.00">
        <walk depart="0.00" departPos="0.00" arrival="99.00" arrivalPos="0.10" duration="99.00" routeLength="128.17" timeLoss="10.76" maxSpeed="1.45" waitingTime="2.00"/>
    </personinfo>
    <tripinfo id="motorcycle35" depart="55.00" departLane="548425664#1_0" departPos="2.30" departSpeed="0.00" departDelay="0.01" arrival="109.00" arrivalLane="160177491#1_0" arrivalPos="41.13" arrivalSpeed="12.85" duration="54.00" routeLength="561.13" waitingTime="0.00" waitingCount="0" stopTime="0.00" timeLoss="10.13" rerouteNo="1" devices="tripinfo_motorcycle35 routing_motorcycle35" vType="motorcycle_motorcycle" speedFactor="1.01" vaporized=""/>
    <tripinfo id="motorcycle28" depart="44.00" departLane="173085038_0" departPos="2.30" departSpeed="0.00" departDelay="0.01" arrival="110.00" arrivalLane="-173085075#5_0" arrivalPos="0.20" arrivalSpeed="13.67" duration="66.00" routeLength="863.34" waitingTime="0.00" waitingCount="0" stopTime="0.00" timeLoss="9.44" rerouteNo="1" devices="tripinfo_motorcycle28 routing_motorcycle28" vType="motorcycle_motorcycle" speedFactor="1.13" vaporized=""/>
    <tripinfo id="motorcycle50" depart="79.00" departLane="-173157325_0" departPos="2.30" departSpeed="16.22" departDelay="0.45" arrival="112.00" arrivalLane="535822391#2_0" arrivalPos="75.40" arrivalSpeed="15.37" duration="33.00" routeLength="362.14" waitingTime="0.00" waitingCount="0" stopTime="0.00" timeLoss="8.80" rerouteNo="1" devices="tripinfo_motorcycle50 routing_motorcycle50" vType="motorcycle_motorcycle" speedFactor="1.17" vaporized=""/>
    <tripinfo id="veh35" depart="19.00" departLane="-173082210_0" departPos="5.10" departSpeed="13.29" departDelay="0.67" arrival="113.00" arrivalLane="173075830#0_0" arrivalPos="30.00" arrivalSpeed="12.57" duration="94.00" routeLength="893.35" waitingTime="8.00" waitingCount="1" stopTime="0.00" timeLoss="29.52" rerouteNo="1" devices="tripinfo_veh35 routing_veh35" vType="veh_passenger" speedFactor="0.96" vaporized=""/>
    <tripinfo id="motorcycle26" depart="41.00" departLane="173082156#3_0" departPos="2.30" departSpeed="0.00" departDelay="0.15" arrival="117.00" arrivalLane="-173157329#5_0" arrivalPos="55.26" arrivalSpeed="11.62" duration="76.00" routeLength="853.33" waitingTime="0.00" waitingCount="0" stopTime="0.00" timeLoss="11.96" rerouteNo="1" devices="tripinfo_motorcycle26 routing_motorcycle26" vType="motorcycle_motorcycle" speedFactor="1.00" vaporized=""/>
    <tripinfo id="motorcycle23" depart="37.00" departLane="-173085068#3_0" departPos="2.30" departSpeed="0.00" departDelay="0.87" arrival="118.00" arrivalLane="173102119#4_0" arrivalPos="177.61" arrivalSpeed="13.43" duration="81.00" routeLength="864.99" waitingTime="0.00" waitingCount="0" stopTime="0.00" timeLoss="13.36" rerouteNo="1" devices="tripinfo_motorcycle23 routing_motorcycle23" vType="motorcycle_motorcycle" speedFactor="0.98" vaporized=""/>
    <tripinfo id="motorcycle21" depart="33.00" departLane="159598277#3_0" departPos="2.30" departSpeed="0.00" departDelay="0.01" arrival="119.00" arrivalLane="-163335402_0" arrivalPos="122.85" arrivalSpeed="13.15" duration="86.00" routeLength="930.14" waitingTime="0.00" waitingCount="0" stopTime="0.00" timeLoss="15.29" rerouteNo="1" devices="tripinfo_motorcycle21 routing_motorcycle21" vType="motorcycle_motorcycle" speedFactor="0.99" vaporized=""/>
    <tripinfo id="motorcycle33" depart="52.00" departLane="332465801#13_0" departPos="2.30" departSpeed="0.00" departDelay="0.15" arrival="120.00" arrivalLane="196932519#3_0" arrivalPos="100.22" arrivalSpeed="13.75" duration="68.00" routeLength="902.05" waitingTime="0.00" waitingCount="0" stopTime="0.00" timeLoss="12.47" rerouteNo="1" devices="tripinfo_motorcycle33 routing_motorcycle33" vType="motorcycle_motorcycle" speedFactor="1.05" vaporized=""/>
    <tripinfo id="veh60" depart="32.00" departLane="-173163399#2_0" departPos="5.10" departSpeed="0.00" departDelay="0.58" arrival="121.00" arrivalLane="-173159355#3_0" arrivalPos="82.40" arrivalSpeed="11.69" duration="89.00" routeLength="849.46" waitingTime="7.00" waitingCount="1" stopTime="0.00" timeLoss="21.62" rerouteNo="1" devices="tripinfo_veh60 routing_veh60" vType="veh_passenger" speedFactor="0.91" vaporized=""/>
    <tripinfo id="veh5" depart="3.00" departLane="944822959_0" departPos="5.10" departSpeed="11.31" departDelay="0.38" arrival="122.00" arrivalLane="173157285#1_0" arrivalPos="36.41" arrivalSpeed="13.80" duration="119.00" routeLength="1373.99" waitingTime="0.00" waitingCount="0" stopTime="0.00" timeLoss="21.60" rerouteNo="1" devices="tripinfo_veh5 routing_veh5" vType="veh_passenger" speedFactor="1.03" vaporized=""/>
    <tripinfo id="veh13" depart="7.00" departLane="-158257437_0" departPos="5.10" departSpeed="11.34" departDelay="0.19" arrival="123.00" arrivalLane="-544154870#1_0" arrivalPos="101.54" arrivalSpeed="15.87" duration="116.00" routeLength="1469.05" waitingTime="0.00" waitingCount="0" stopTime="0.00" timeLoss="23.55" rerouteNo="1" devices="tripinfo_veh13 routing_veh13" vType="veh_passenger" speedFactor="1.16" vaporized=""/>
    <tripinfo id="truck7" depart="6.00" departLane="924512579_0" departPos="7.20" departSpeed="0.00" departDelay="0.50" arrival="123.00" arrivalLane="653481953_0" arrivalPos="44.56" arrivalSpeed="10.62" duration="117.00" routeLength="1068.90" waitingTime="0.00" waitingCount="0" stopTime="0.00" timeLoss="28.44" rerouteNo="1" devices="tripinfo_truck7 routing_truck7" vType="truck_truck" speedFactor="0.93" vaporized=""/>
    <tripinfo id="motorcycle5" depart="8.00" departLane="-385949145#1_0" departPos="2.30" departSpeed="15.53" departDelay="0.14" arrival="124.00" arrivalLane="173157348#1_0" arrivalPos="13.51" arrivalSpeed="12.67" duration="116.00" routeLength="1443.37" waitingTime="0.00" waitingCount="0" stopTime="0.00" timeLoss="18.79" rerouteNo="1" devices="tripinfo_motorcycle5 routing_motorcycle5" vType="motorcycle_motorcycle" speedFactor="1.12" vaporized=""/>
    <tripinfo id="motorcycle31" depart="49.00" departLane="173075799#1_0" departPos="2.30" departSpeed="0.00" departDelay="0.30" arrival="125.00" arrivalLane="-187678112_0" arrivalPos="125.40" arrivalSpeed="13.47" duration="76.00" routeLength="821.82" waitingTime="0.00" waitingCount="0" stopTime="0.00" timeLoss="13.69" rerouteNo="1" devices="tripinfo_motorcycle31 routing_motorcycle31" vType="motorcycle_motorcycle" speedFactor="1.03" vaporized=""/>
    <tripinfo id="veh78" depart="41.00" departLane="173102115#1_0" departPos="5.10" departSpeed="0.00" departDelay="0.15" arrival="131.00" arrivalLane="173102125#1_0" arrivalPos="95.25" arrivalSpeed="14.74" duration="90.00" routeLength="1026.78" waitingTime="0.00" waitingCount="0" stopTime="0.00" timeLoss="22.40" rerouteNo="1" devices="tripinfo_veh78 routing_veh78" vType="veh_passenger" speedFactor="1.15" vaporized=""/>
    <tripinfo id="motorcycle10" depart="16.00" departLane="-173075621_0" departPos="2.30" departSpeed="0.00" departDelay="0.29" arrival="134.00" arrivalLane="-127569065#2_0" arrivalPos="212.53" arrivalSpeed="14.72" duration="118.00" routeLength="1756.22" waitingTime="0.00" waitingCount="0" stopTime="0.00" timeLoss="15.09" rerouteNo="1" devices="tripinfo_motorcycle10 routing_motorcycle10" vType="motorcycle_motorcycle" speedFactor="1.26" vaporized=""/>
    <tripinfo id="motorcycle6" depart="10.00" departLane="-173082215#0_0" departPos="2.30" departSpeed="0.00" departDelay="0.57" arrival="136.00" arrivalLane="-173082176#8_1" arrivalPos="11.41" arrivalSpeed="16.28" duration="126.00" routeLength="1620.85" waitingTime="0.00" waitingCount="0" stopTime="0.00" timeLoss="23.00" rerouteNo="1" devices="tripinfo_motorcycle6 routing_motorcycle6" vType="motorcycle_motorcycle" speedFactor="1.19" vaporized=""/>
    <tripinfo id="motorcycle14" depart="22.00" departLane="173075668#1_0" departPos="2.30" departSpeed="0.00" departDelay="0.01" arrival="136.00" arrivalLane="332465801#1_0" arrivalPos="55.29" arrivalSpeed="14.55" duration="114.00" routeLength="1321.46" waitingTime="12.00" waitingCount="2" stopTime="0.00" timeLoss="32.49" rerouteNo="1" devices="tripinfo_motorcycle14 routing_motorcycle14" vType="motorcycle_motorcycle" speedFactor="1.02" vaporized=""/>
    <tripinfo id="veh0" depart="0.00" departLane="-657707371_0" departPos="5.10" departSpeed="8.15" departDelay="0.00" arrival="137.00" arrivalLane="160056781#3_0" arrivalPos="42.31" arrivalSpeed="13.58" duration="137.00" routeLength="1412.81" waitingTime="2.00" waitingCount="1" stopTime="0.00" timeLoss="30.71" rerouteNo="1" devices="tripinfo_veh0 routing_veh0" vType="veh_passenger" speedFactor="1.06" vaporized=""/>
    <tripinfo id="motorcycle24" depart="38.00" departLane="-173085067#0_0" departPos="2.30" departSpeed="0.00" departDelay="0.29" arrival="137.00" arrivalLane="520717406#6_0" arrivalPos="78.06" arrivalSpeed="13.40" duration="99.00" routeLength="1064.08" waitingTime="0.00" waitingCount="0" stopTime="0.00" timeLoss="17.61" rerouteNo="1" devices="tripinfo_motorcycle24 routing_motorcycle24" vType="motorcycle_motorcycle" speedFactor="0.97" vaporized=""/>
    <tripinfo id="motorcycle73" depart="115.00" departLane="159758947#5_0" departPos="2.30" departSpeed="0.00" departDelay="0.31" arrival="138.00" arrivalLane="-217676886_0" arrivalPos="40.40" arrivalSpeed="11.45" duration="23.00" routeLength="180.32" waitingTime="0.00" waitingCount="0" stopTime="0.00" timeLoss="6.15" rerouteNo="1" devices="tripinfo_motorcycle73 routing_motorcycle73" vType="motorcycle_motorcycle" speedFactor="0.92" vaporized=""/>
    <tripinfo id="veh81" depart="43.00" departLane="217676884_0" departPos="5.10" departSpeed="14.48" departDelay="0.58" arrival="139.00" arrivalLane="-152906308#2_0" arrivalPos="65.57" arrivalSpeed="13.79" duration="96.00" routeLength="1097.31" waitingTime="0.00" waitingCount="0" stopTime="0.00" timeLoss="15.93" rerouteNo="1" devices="tripinfo_veh81 routing_veh81" vType="veh_passenger" speedFactor="1.04" vaporized=""/>
    <tripinfo id="veh21" depart="11.00" departLane="332465801#13_0" departPos="5.10" departSpeed="0.00" departDelay="0.00" arrival="140.00" arrivalLane="173075651#10_0" arrivalPos="23.02" arrivalSpeed="12.11" duration="129.00" routeLength="1506.19" waitingTime="0.00" waitingCount="0" stopTime="0.00" timeLoss="15.39" rerouteNo="1" devices="tripinfo_veh21 routing_veh21" vType="veh_passenger" speedFactor="0.95" vaporized=""/>
    <tripinfo id="veh123" depart="65.00" departLane="537568167#0_0" departPos="5.10" departSpeed="0.00" departDelay="0.59" arrival="140.00" arrivalLane="159758967#1_0" arrivalPos="20.45" arrivalSpeed="10.37" duration="75.00" routeLength="664.23" waitingTime="4.00" waitingCount="1" stopTime="0.00" timeLoss="24.79" rerouteNo="1" devices="tripinfo_veh123 routing_veh123" vType="veh_passenger" speedFactor="1.01" vaporized=""/>
    <tripinfo id="motorcycle8" depart="13.00" departLane="-173157313_0" departPos="2.30" departSpeed="0.00" departDelay="0.43" arrival="140.00" arrivalLane="1364505247_0" arrivalPos="36.00" arrivalSpeed="13.12" duration="127.00" routeLength="1496.09" waitingTime="0.00" waitingCount="0" stopTime="0.00" timeLoss="23.84" rerouteNo="1" devices="tripinfo_motorcycle8 routing_motorcycle8" vType="motorcycle_motorcycle" speedFactor="0.98" vaporized=""/>
    <tripinfo id="motorcycle57" depart="90.00" departLane="173082226_0" departPos="2.30" departSpeed="0.00" departDelay="0.45" arrival="140.00" arrivalLane="-173869738#0_0" arrivalPos="48.88" arrivalSpeed="11.93" duration="50.00" routeLength="544.80" waitingTime="0.00" waitingCount="0" stopTime="0.00" timeLoss="7.98" rerouteNo="1" devices="tripinfo_motorcycle57 routing_motorcycle57" vType="motorcycle_motorcycle" speedFactor="0.97" vaporized=""/>
    <tripinfo id="veh62" depart="33.00" departLane="-385949107_0" departPos="5.10" departSpeed="14.45" departDelay="0.53" arrival="142.00" arrivalLane="-217677876#0_0" arrivalPos="16.70" arrivalSpeed="13.89" duration="109.00" routeLength="1211.82" waitingTime="0.00" waitingCount="0" stopTime="0.00" timeLoss="15.15" rerouteNo="1" devices="tripinfo_veh62 routing_veh62" vType="veh_passenger" speedFactor="1.04" vaporized=""/>
    <tripinfo id="motorcycle9" depart="15.00" departLane="520708772#7_0" departPos="2.30" departSpeed="0.00" departDelay="0.86" arrival="143.00" arrivalLane="745534177_0" arrivalPos="31.84" arrivalSpeed="12.99" duration="128.00" routeLength="1461.43" waitingTime="0.00" waitingCount="0" stopTime="0.00" timeLoss="31.58" rerouteNo="1" devices="tripinfo_motorcycle9 routing_motorcycle9" vType="motorcycle_motorcycle" speedFactor="1.12" vaporized=""/>
    <tripinfo id="motorcycle40" depart="63.00" departLane="-332465801#24_0" departPos="2.30" departSpeed="0.00" departDelay="0.16" arrival="144.00" arrivalLane="173075581#1_0" arrivalPos="152.46" arrivalSpeed="13.31" duration="81.00" routeLength="768.94" waitingTime="9.00" waitingCount="2" stopTime="0.00" timeLoss="27.99" rerouteNo="1" devices="tripinfo_motorcycle40 routing_motorcycle40" vType="motorcycle_motorcycle" speedFactor="0.97" vaporized=""/>
    <tripinfo id="truck34" depart="27.00" departLane="173075882#0_0" departPos="7.20" departSpeed="0.00" departDelay="0.29" arrival="144.00" arrivalLane="-173070120_0" arrivalPos="95.60" arrivalSpeed="13.21" duration="117.00" routeLength="1192.04" waitingTime="0.00" waitingCount="0" stopTime="0.00" timeLoss="24.72" rerouteNo="1" devices="tripinfo_truck34 routing_truck34" vType="truck_truck" speedFactor="0.98" vaporized=""/>
    <tripinfo id="truck28" depart="22.00" departLane="173157388#3_0" departPos="7.20" departSpeed="0.00" departDelay="0.01" arrival="147.00" arrivalLane="-173082276#1_0" arrivalPos="243.54" arrivalSpeed="12.77" duration="125.00" routeLength="1349.55" waitingTime="0.00" waitingCount="0" stopTime="0.00" timeLoss="17.25" rerouteNo="1" devices="tripinfo_truck28 routing_truck28" vType="truck_truck" speedFactor="0.95" vaporized=""/>
    <tripinfo id="veh51" depart="27.00" departLane="-160056769#1_0" departPos="5.10" departSpeed="0.00" departDelay="0.29" arrival="151.00" arrivalLane="1163037322#2_0" arrivalPos="8.65" arrivalSpeed="12.52" duration="124.00" routeLength="1391.31" waitingTime="3.00" waitingCount="1" stopTime="0.00" timeLoss="33.22" rerouteNo="1" devices="tripinfo_veh51 routing_veh51" vType="veh_passenger" speedFactor="1.14" vaporized=""/>
    <tripinfo id="motorcycle22" depart="35.00" departLane="332465801#34_0" departPos="1.71" departSpeed="0.00" departDelay="0.44" arrival="153.00" arrivalLane="-196885601#7_0" arrivalPos="18.28" arrivalSpeed="13.85" duration="118.00" routeLength="1516.08" waitingTime="0.00" waitingCount="0" stopTime="0.00" timeLoss="16.83" rerouteNo="1" devices="tripinfo_motorcycle22 routing_motorcycle22" vType="motorcycle_motorcycle" speedFactor="1.10" vaporized=""/>
    <tripinfo id="veh147" depart="77.00" departLane="159929400#2_0" departPos="5.10" departSpeed="0.00" departDelay="0.02" arrival="157.00" arrivalLane="160289210#1_0" arrivalPos="27.28" arrivalSpeed="11.88" duration="80.00" routeLength="721.31" waitingTime="0.00" waitingCount="0" stopTime="0.00" timeLoss="17.48" rerouteNo="1" devices="tripinfo_veh147 routing_veh147" vType="veh_passenger" speedFactor="0.93" vaporized=""/>
    <tripinfo id="motorcycle66" depart="104.00" departLane="479908573#0_0" departPos="2.30" departSpeed="0.00" departDelay="0.31" arrival="159.00" arrivalLane="-197310657#1_0" arrivalPos="83.94" arrivalSpeed="10.73" duration="55.00" routeLength="514.55" waitingTime="0.00" waitingCount="0" stopTime="0.00" timeLoss="9.50" rerouteNo="1" devices="tripinfo_motorcycle66 routing_motorcycle66" vType="motorcycle_motorcycle" speedFactor="0.86" vaporized=""/>
    <tripinfo id="veh69" depart="37.00" departLane="-173157346#1_0" departPos="5.10" departSpeed="0.00" departDelay="0.87" arrival="160.00" arrivalLane="173102132#1_0" arrivalPos="105.00" arrivalSpeed="13.33" duration="123.00" routeLength="1415.04" waitingTime="0.00" waitingCount="0" stopTime="0.00" timeLoss="22.84" rerouteNo="1" devices="tripinfo_veh69 routing_veh69" vType="veh_passenger" speedFactor="0.98" vaporized=""/>
    <tripinfo id="veh188" depart="99.00" departLane="173102118#3_0" departPos="5.10" departSpeed="0.00" departDelay="0.55" arrival="160.00" arrivalLane="-173102097_0" arrivalPos="71.55" arrivalSpeed="13.16" duration="61.00" routeLength="683.18" waitingTime="0.00" waitingCount="0" stopTime="0.00" timeLoss="10.45" rerouteNo="1" devices="tripinfo_veh188 routing_veh188" vType="veh_passenger" speedFactor="1.00" vaporized=""/>
    <tripinfo id="motorcycle76" depart="120.00" departLane="-173082261#4_0" departPos="2.30" departSpeed="0.00" departDelay="0.60" arrival="162.00" arrivalLane="-173869738#11_0" arrivalPos="33.42" arrivalSpeed="15.22" duration="42.00" routeLength="385.03" waitingTime="7.00" waitingCount="1" stopTime="0.00" timeLoss="17.72" rerouteNo="1" devices="tripinfo_motorcycle76 routing_motorcycle76" vType="motorcycle_motorcycle" speedFactor="1.21" vaporized=""/>
    <tripinfo id="motorcycle36" depart="57.00" departLane="173157391#0_0" departPos="2.30" departSpeed="0.00" departDelay="0.44" arrival="164.00" arrivalLane="-1390833001#4_0" arrivalPos="35.03" arrivalSpeed="15.40" duration="107.00" routeLength="1125.02" waitingTime="0.00" waitingCount="0" stopTime="0.00" timeLoss="21.33" rerouteNo="1" devices="tripinfo_motorcycle36 routing_motorcycle36" vType="motorcycle_motorcycle" speedFactor="1.01" vaporized=""/>
    <tripinfo id="veh133" depart="70.00" departLane="159758965#3_0" departPos="5.10" departSpeed="0.00" departDelay="0.35" arrival="165.00" arrivalLane="-160289198_0" arrivalPos="62.33" arrivalSpeed="6.07" duration="95.00" routeLength="732.08" waitingTime="13.00" waitingCount="1" stopTime="0.00" timeLoss="34.89" rerouteNo="1" devices="tripinfo_veh133 routing_veh133" vType="veh_passenger" speedFactor="0.95" vaporized=""/>
    <tripinfo id="motorcycle37" depart="59.00" departLane="313156228_0" departPos="2.30" departSpeed="0.00" departDelay="0.87" arrival="165.00" arrivalLane="-520721256#1_0" arrivalPos="0.20" arrivalSpeed="12.04" duration="106.00" routeLength="934.31" waitingTime="0.00" waitingCount="0" stopTime="0.00" timeLoss="23.62" rerouteNo="1" devices="tripinfo_motorcycle37 routing_motorcycle37" vType="motorcycle_motorcycle" speedFactor="0.88" vaporized=""/>
    <tripinfo id="motorcycle53" depart="84.00" departLane="-967728692#2_0" departPos="2.30" departSpeed="0.00" departDelay="0.73" arrival="165.00" arrivalLane="160289254#0_0" arrivalPos="44.18" arrivalSpeed="10.80" duration="81.00" routeLength="830.46" waitingTime="0.00" waitingCount="0" stopTime="0.00" timeLoss="13.52" rerouteNo="1" devices="tripinfo_motorcycle53 routing_motorcycle53" vType="motorcycle_motorcycle" speedFactor="0.93" vaporized=""/>
    <tripinfo id="truck4" depart="4.00" departLane="-158257423#3_0" departPos="7.20" departSpeed="0.00" departDelay="0.86" arrival="166.00" arrivalLane="-159758963#7_0" arrivalPos="68.76" arrivalSpeed="13.91" duration="162.00" routeLength="1373.35" waitingTime="14.00" waitingCount="2" stopTime="0.00" timeLoss="62.88" rerouteNo="1" devices="tripinfo_truck4 routing_truck4" vType="truck_truck" speedFactor="1.03" vaporized=""/>
    <tripinfo id="motorcycle59" depart="93.00" departLane="-173082275#5_0" departPos="2.30" departSpeed="0.00" departDelay="0.31" arrival="167.00" arrivalLane="351190983#1_0" arrivalPos="205.87" arrivalSpeed="17.82" duration="74.00" routeLength="1102.01" waitingTime="0.00" waitingCount="0" stopTime="0.00" timeLoss="9.65" rerouteNo="1" devices="tripinfo_motorcycle59 routing_motorcycle59" vType="motorcycle_motorcycle" speedFactor="1.20" vaporized=""/>
    <tripinfo id="motorcycle82" depart="129.00" departLane="-159929385#5_0" departPos="2.30" departSpeed="0.00" departDelay="0.17" arrival="167.00" arrivalLane="158262247#4_0" arrivalPos="0.20" arrivalSpeed="14.22" duration="38.00" routeLength="386.90" waitingTime="0.00" waitingCount="0" stopTime="0.00" timeLoss="8.71" rerouteNo="1" devices="tripinfo_motorcycle82 routing_motorcycle82" vType="motorcycle_motorcycle" speedFactor="1.04" vaporized=""/>
    <tripinfo id="motorcycle55" depart="87.00" departLane="866901643_0" departPos="2.30" departSpeed="0.00" departDelay="0.59" arrival="168.00" arrivalLane="-173075583#0_0" arrivalPos="200.51" arrivalSpeed="15.01" duration="81.00" routeLength="1012.15" waitingTime="1.00" waitingCount="1" stopTime="0.00" timeLoss="21.43" rerouteNo="1" devices="tripinfo_motorcycle55 routing_motorcycle55" vType="motorcycle_motorcycle" speedFactor="1.24" vaporized=""/>
    <tripinfo id="veh93" depart="49.00" departLane="196885601#4_0" departPos="5.10" departSpeed="0.00" departDelay="0.30" arrival="171.00" arrivalLane="173102124_0" arrivalPos="91.71" arrivalSpeed="10.91" duration="122.00" routeLength="1428.97" waitingTime="3.00" waitingCount="1" stopTime="0.00" timeLoss="28.84" rerouteNo="1" devices="tripinfo_veh93 routing_veh93" vType="veh_passenger" speedFactor="1.10" vaporized=""/>
    <tripinfo id="motorcycle3" depart="5.00" departLane="158280241_0" departPos="2.30" departSpeed="0.00" departDelay="0.29" arrival="171.00" arrivalLane="160177473_0" arrivalPos="92.95" arrivalSpeed="13.34" duration="166.00" routeLength="1822.10" waitingTime="1.00" waitingCount="1" stopTime="0.00" timeLoss="35.83" rerouteNo="1" devices="tripinfo_motorcycle3 routing_motorcycle3" vType="motorcycle_motorcycle" speedFactor="1.11" vaporized=""/>
    <tripinfo id="veh90" depart="48.00" departLane="173082267#1_0" departPos="5.10" departSpeed="0.00" departDelay="0.87" arrival="174.00" arrivalLane="-173082229_0" arrivalPos="108.23" arrivalSpeed="12.99" duration="126.00" routeLength="1334.07" waitingTime="5.00" waitingCount="1" stopTime="0.00" timeLoss="28.87" rerouteNo="1" devices="tripinfo_veh90 routing_veh90" vType="veh_passenger" speedFactor="1.01" vaporized=""/>
    <tripinfo id="motorcycle4" depart="7.00" departLane="544131197#1_0" departPos="2.30" departSpeed="0.00" departDelay="0.72" arrival="174.00" arrivalLane="-313850655#5_0" arrivalPos="44.61" arrivalSpeed="7.96" duration="167.00" routeLength="1544.21" waitingTime="20.00" waitingCount="3" stopTime="0.00" timeLoss="51.10" rerouteNo="1" devices="tripinfo_motorcycle4 routing_motorcycle4" vType="motorcycle_motorcycle" speedFactor="1.00" vaporized=""/>
    <tripinfo id="motorcycle16" depart="26.00" departLane="933975354#1_0" departPos="2.30" departSpeed="0.00" departDelay="0.86" arrival="177.00" arrivalLane="163294286_0" arrivalPos="142.38" arrivalSpeed="14.27" duration="151.00" routeLength="1655.83" waitingTime="16.00" waitingCount="3" stopTime="0.00" timeLoss="43.53" rerouteNo="1" devices="tripinfo_motorcycle16 routing_motorcycle16" vType="motorcycle_motorcycle" speedFactor="1.10" vaporized=""/>
    <tripinfo id="motorcycle38" depart="60.00" departLane="934394400_0" departPos="2.30" departSpeed="14.63" departDelay="0.30" arrival="178.00" arrivalLane="160287945#0_0" arrivalPos="22.45" arrivalSpeed="14.04" duration="118.00" routeLength="1263.87" waitingTime="8.00" waitingCount="1" stopTime="0.00" timeLoss="23.68" rerouteNo="1" devices="tripinfo_motorcycle38 routing_motorcycle38" vType="motorcycle_motorcycle" speedFactor="1.05" vaporized=""/>
    <tripinfo id="motorcycle56" depart="88.00" departLane="157940062#1_0" departPos="2.30" departSpeed="0.00" departDelay="0.02" arrival="179.00" arrivalLane="158280262#4_0" arrivalPos="43.40" arrivalSpeed="12.21" duration="91.00" routeLength="977.25" waitingTime="0.00" waitingCount="0" stopTime="0.00" timeLoss="14.54" rerouteNo="1" devices="tripinfo_motorcycle56 routing_motorcycle56" vType="motorcycle_motorcycle" speedFactor="0.96" vaporized=""/>
    <tripinfo id="veh111" depart="59.00" departLane="-520721259#1_0" departPos="5.10" departSpeed="0.00" departDelay="0.87" arrival="180.00" arrivalLane="173082266#0_0" arrivalPos="366.32" arrivalSpeed="13.67" duration="121.00" routeLength="1366.09" waitingTime="0.00" waitingCount="0" stopTime="0.00" timeLoss="19.44" rerouteNo="1" devices="tripinfo_veh111 routing_veh111" vType="veh_passenger" speedFactor="1.00" vaporized=""/>
</tripinfos>
