<?xml version="1.0" encoding="UTF-8"?>

<!-- generated on 2025-10-08 03:24:14 by Eclipse SUMO GUI Version 1.18.0
<configuration xmlns:xsi="http://www.w3.org/2001/XMLSchema-instance" xsi:noNamespaceSchemaLocation="http://sumo.dlr.de/xsd/sumoConfiguration.xsd">

    <input>
        <net-file value="scenarios/from_osm/osm.net.xml"/>
        <route-files value="scenarios/from_osm/osm.rou.xml"/>
    </input>

    <output>
        <emission-output value="scenarios/from_osm/emissions.xml"/>
        <queue-output value="scenarios/from_osm/queueinfo.xml"/>
        <tripinfo-output value="scenarios/from_osm/tripinfo.xml"/>
    </output>

    <processing>
        <time-to-teleport value="-1"/>
    </processing>

    <traci_server>
        <remote-port value="8813"/>
    </traci_server>

    <gui_only>
        <quit-on-end value="true"/>
        <start value="true"/>
    </gui_only>

</configuration>
-->

<tripinfos xmlns:xsi="http://www.w3.org/2001/XMLSchema-instance" xsi:noNamespaceSchemaLocation="http://sumo.dlr.de/xsd/tripinfo_file.xsd">
    <tripinfo id="53" depart="39.00" departLane="-160287939#1_0" departPos="5.10" departSpeed="0.00" departDelay="0.84" arrival="98.00" arrivalLane="-945598230_0" arrivalPos="14.53" arrivalSpeed="11.70" duration="59.00" routeLength="579.03" waitingTime="0.00" waitingCount="0" stopTime="0.00" timeLoss="22.57" rerouteNo="0" devices="tripinfo_53 emissions_53" vType="DEFAULT_VEHTYPE" speedFactor="1.17" vaporized="">
        <emissions CO_abs="4878.728674" CO2_abs="280490.134100" HC_abs="28.918956" PMx_abs="5.661795" NOx_abs="119.999989" fuel_abs="89462.966960" electricity_abs="0"/>
    </tripinfo>
    <tripinfo id="2" depart="2.00" departLane="173159456_0" departPos="5.10" departSpeed="0.00" departDelay="0.56" arrival="111.00" arrivalLane="173085075#0_0" arrivalPos="44.22" arrivalSpeed="14.74" duration="109.00" routeLength="1195.67" waitingTime="0.00" waitingCount="0" stopTime="0.00" timeLoss="23.25" rerouteNo="0" devices="tripinfo_2 emissions_2" vType="DEFAULT_VEHTYPE" speedFactor="1.01" vaporized="">
        <emissions CO_abs="5927.161779" CO2_abs="397351.822907" HC_abs="35.872011" PMx_abs="6.884773" NOx_abs="160.284150" fuel_abs="126737.032003" electricity_abs="0"/>
    </tripinfo>
    <tripinfo id="37" depart="27.00" departLane="173082202_0" departPos="5.10" departSpeed="0.00" departDelay="0.36" arrival="113.00" arrivalLane="-546132097_0" arrivalPos="30.97" arrivalSpeed="12.24" duration="86.00" routeLength="887.91" waitingTime="0.00" waitingCount="0" stopTime="0.00" timeLoss="17.06" rerouteNo="0" devices="tripinfo_37 emissions_37" vType="DEFAULT_VEHTYPE" speedFactor="0.97" vaporized="">
        <emissions CO_abs="4440.798101" CO2_abs="292940.882220" HC_abs="26.985730" PMx_abs="5.149995" NOx_abs="119.588883" fuel_abs="93434.656349" electricity_abs="0"/>
    </tripinfo>
    <tripinfo id="15" depart="11.00" departLane="197423567#0_0" departPos="5.10" departSpeed="0.00" departDelay="0.20" arrival="119.00" arrivalLane="173163400#3_0" arrivalPos="54.70" arrivalSpeed="13.34" duration="108.00" routeLength="1129.29" waitingTime="0.00" waitingCount="0" stopTime="0.00" timeLoss="14.54" rerouteNo="0" devices="tripinfo_15 emissions_15" vType="DEFAULT_VEHTYPE" speedFactor="0.99" vaporized="">
        <emissions CO_abs="4020.456168" CO2_abs="292821.638009" HC_abs="24.798659" PMx_abs="4.544086" NOx_abs="114.715839" fuel_abs="93397.078857" electricity_abs="0"/>
    </tripinfo>
    <tripinfo id="46" depart="34.00" departLane="187735567_0" departPos="5.10" departSpeed="0.00" departDelay="0.88" arrival="123.00" arrivalLane="-866928905#0_0" arrivalPos="34.57" arrivalSpeed="22.03" duration="89.00" routeLength="1428.71" waitingTime="0.00" waitingCount="0" stopTime="0.00" timeLoss="27.15" rerouteNo="0" devices="tripinfo_46 emissions_46" vType="DEFAULT_VEHTYPE" speedFactor="1.04" vaporized="">
        <emissions CO_abs="7988.240661" CO2_abs="519653.294228" HC_abs="48.931386" PMx_abs="10.903452" NOx_abs="215.481354" fuel_abs="165744.159539" electricity_abs="0"/>
    </tripinfo>
    <tripinfo id="60" depart="44.00" departLane="182105811#0_0" departPos="5.10" departSpeed="0.00" departDelay="0.80" arrival="126.00" arrivalLane="160056786#10_0" arrivalPos="55.15" arrivalSpeed="14.99" duration="82.00" routeLength="926.33" waitingTime="0.00" waitingCount="0" stopTime="0.00" timeLoss="18.83" rerouteNo="0" devices="tripinfo_60 emissions_60" vType="DEFAULT_VEHTYPE" speedFactor="1.14" vaporized="">
        <emissions CO_abs="4769.520835" CO2_abs="322731.143747" HC_abs="28.993478" PMx_abs="5.769881" NOx_abs="131.352796" fuel_abs="102936.208005" electricity_abs="0"/>
    </tripinfo>
    <tripinfo id="32" depart="24.00" departLane="332465801#29_0" departPos="5.10" departSpeed="0.00" departDelay="0.96" arrival="128.00" arrivalLane="196885601#11_0" arrivalPos="58.17" arrivalSpeed="16.00" duration="104.00" routeLength="1561.16" waitingTime="0.00" waitingCount="0" stopTime="0.00" timeLoss="42.45" rerouteNo="0" devices="tripinfo_32 emissions_32" vType="DEFAULT_VEHTYPE" speedFactor="1.15" vaporized="">
        <emissions CO_abs="10829.552888" CO2_abs="680212.491615" HC_abs="65.793738" PMx_abs="14.738453" NOx_abs="290.014944" fuel_abs="216954.099666" electricity_abs="0"/>
    </tripinfo>
    <tripinfo id="48" depart="35.00" departLane="967728692#1_0" departPos="5.10" departSpeed="0.00" departDelay="0.44" arrival="128.00" arrivalLane="159758967#1_0" arrivalPos="19.02" arrivalSpeed="10.43" duration="93.00" routeLength="982.91" waitingTime="0.00" waitingCount="0" stopTime="0.00" timeLoss="24.35" rerouteNo="0" devices="tripinfo_48 emissions_48" vType="DEFAULT_VEHTYPE" speedFactor="1.00" vaporized="">
        <emissions CO_abs="5838.570541" CO2_abs="360857.447595" HC_abs="35.060371" PMx_abs="6.811976" NOx_abs="150.134095" fuel_abs="115096.641942" electricity_abs="0"/>
    </tripinfo>
    <tripinfo id="13" depart="10.00" departLane="-160056863#8_0" departPos="5.10" departSpeed="0.00" departDelay="0.64" arrival="140.00" arrivalLane="-160060835_0" arrivalPos="106.15" arrivalSpeed="14.47" duration="130.00" routeLength="1210.96" waitingTime="0.00" waitingCount="0" stopTime="0.00" timeLoss="20.35" rerouteNo="0" devices="tripinfo_13 emissions_13" vType="DEFAULT_VEHTYPE" speedFactor="1.05" vaporized="">
        <emissions CO_abs="6013.799224" CO2_abs="368107.314870" HC_abs="35.822685" PMx_abs="5.942759" NOx_abs="147.148561" fuel_abs="117410.148153" electricity_abs="0"/>
    </tripinfo>
    <tripinfo id="109" depart="79.00" departLane="-173075623_0" departPos="5.10" departSpeed="0.00" departDelay="0.52" arrival="143.00" arrivalLane="-187735558_0" arrivalPos="30.94" arrivalSpeed="12.34" duration="64.00" routeLength="777.76" waitingTime="0.00" waitingCount="0" stopTime="0.00" timeLoss="22.08" rerouteNo="0" devices="tripinfo_109 emissions_109" vType="DEFAULT_VEHTYPE" speedFactor="1.01" vaporized="">
        <emissions CO_abs="5587.926392" CO2_abs="325735.853306" HC_abs="33.243940" PMx_abs="6.771919" NOx_abs="138.269002" fuel_abs="103894.092462" electricity_abs="0"/>
    </tripinfo>
    <tripinfo id="79" depart="57.00" departLane="-173157382#1_0" departPos="5.10" departSpeed="0.00" departDelay="0.12" arrival="150.00" arrivalLane="-173157406#8_0" arrivalPos="96.58" arrivalSpeed="19.62" duration="93.00" routeLength="1182.90" waitingTime="0.00" waitingCount="0" stopTime="0.00" timeLoss="23.63" rerouteNo="0" devices="tripinfo_79 emissions_79" vType="DEFAULT_VEHTYPE" speedFactor="1.03" vaporized="">
        <emissions CO_abs="6595.522558" CO2_abs="439983.990684" HC_abs="40.292737" PMx_abs="8.492779" NOx_abs="181.358298" fuel_abs="140333.952586" electricity_abs="0"/>
    </tripinfo>
    <tripinfo id="124" depart="90.00" departLane="173085038_0" departPos="5.10" departSpeed="0.00" departDelay="0.72" arrival="152.00" arrivalLane="-188825472_0" arrivalPos="41.75" arrivalSpeed="14.35" duration="62.00" routeLength="740.24" waitingTime="0.00" waitingCount="0" stopTime="0.00" timeLoss="10.86" rerouteNo="0" devices="tripinfo_124 emissions_124" vType="DEFAULT_VEHTYPE" speedFactor="1.10" vaporized="">
        <emissions CO_abs="3218.080357" CO2_abs="232867.900875" HC_abs="19.878884" PMx_abs="4.042697" NOx_abs="93.574244" fuel_abs="74274.041594" electricity_abs="0"/>
    </tripinfo>
    <tripinfo id="81" depart="59.00" departLane="-173157370#1_0" departPos="5.10" departSpeed="0.00" departDelay="0.68" arrival="156.00" arrivalLane="546860537#2_0" arrivalPos="32.50" arrivalSpeed="13.69" duration="97.00" routeLength="1165.21" waitingTime="0.00" waitingCount="0" stopTime="0.00" timeLoss="12.09" rerouteNo="0" devices="tripinfo_81 emissions_81" vType="DEFAULT_VEHTYPE" speedFactor="1.01" vaporized="">
        <emissions CO_abs="3003.919798" CO2_abs="270624.128352" HC_abs="19.438747" PMx_abs="3.930130" NOx_abs="103.043450" fuel_abs="86316.975259" electricity_abs="0"/>
    </tripinfo>
    <tripinfo id="16" depart="12.00" departLane="159758947#3_0" departPos="5.10" departSpeed="0.00" departDelay="0.48" arrival="157.00" arrivalLane="932918003_0" arrivalPos="42.42" arrivalSpeed="7.35" duration="145.00" routeLength="1957.55" waitingTime="0.00" waitingCount="0" stopTime="0.00" timeLoss="35.80" rerouteNo="0" devices="tripinfo_16 emissions_16" vType="DEFAULT_VEHTYPE" speedFactor="0.93" vaporized="">
        <emissions CO_abs="10076.904878" CO2_abs="667323.033904" HC_abs="61.745636" PMx_abs="13.245968" NOx_abs="276.063956" fuel_abs="212844.061868" electricity_abs="0"/>
    </tripinfo>
    <tripinfo id="24" depart="18.00" departLane="173075652#0_0" departPos="5.10" departSpeed="0.00" departDelay="0.72" arrival="165.00" arrivalLane="-520721251#1_0" arrivalPos="0.12" arrivalSpeed="4.62" duration="147.00" routeLength="1982.25" waitingTime="4.00" waitingCount="1" stopTime="0.00" timeLoss="38.89" rerouteNo="0" devices="tripinfo_24 emissions_24" vType="DEFAULT_VEHTYPE" speedFactor="0.89" vaporized="">
        <emissions CO_abs="8893.472228" CO2_abs="597746.104844" HC_abs="53.920523" PMx_abs="11.033548" NOx_abs="239.363259" fuel_abs="190653.157692" electricity_abs="0"/>
    </tripinfo>
    <tripinfo id="76" depart="55.00" departLane="-932630551#6_0" departPos="5.10" departSpeed="0.00" departDelay="0.28" arrival="183.00" arrivalLane="159607463_0" arrivalPos="122.37" arrivalSpeed="13.54" duration="128.00" routeLength="1651.35" waitingTime="26.00" waitingCount="1" stopTime="0.00" timeLoss="55.72" rerouteNo="0" devices="tripinfo_76 emissions_76" vType="DEFAULT_VEHTYPE" speedFactor="1.06" vaporized="">
        <emissions CO_abs="13356.328482" CO2_abs="630722.412573" HC_abs="76.086940" PMx_abs="13.559434" NOx_abs="263.038758" fuel_abs="201171.845351" electricity_abs="0"/>
    </tripinfo>
    <tripinfo id="82" depart="60.00" departLane="410045890#7_0" departPos="5.10" departSpeed="0.00" departDelay="0.96" arrival="187.00" arrivalLane="-160056774#0_0" arrivalPos="96.44" arrivalSpeed="14.24" duration="127.00" routeLength="983.07" waitingTime="46.00" waitingCount="1" stopTime="0.00" timeLoss="64.40" rerouteNo="0" devices="tripinfo_82 emissions_82" vType="DEFAULT_VEHTYPE" speedFactor="1.09" vaporized="">
        <emissions CO_abs="12344.013080" CO2_abs="444708.655205" HC_abs="66.306487" PMx_abs="8.930577" NOx_abs="187.048552" fuel_abs="141843.935623" electricity_abs="0"/>
    </tripinfo>
    <tripinfo id="133" depart="96.00" departLane="163294295#0_0" departPos="5.10" departSpeed="0.00" departDelay="0.24" arrival="187.00" arrivalLane="945299996_0" arrivalPos="180.96" arrivalSpeed="13.81" duration="91.00" routeLength="1318.54" waitingTime="0.00" waitingCount="0" stopTime="0.00" timeLoss="25.06" rerouteNo="0" devices="tripinfo_133 emissions_133" vType="DEFAULT_VEHTYPE" speedFactor="1.03" vaporized="">
        <emissions CO_abs="7249.620137" CO2_abs="476721.130938" HC_abs="44.393972" PMx_abs="9.742784" NOx_abs="198.231896" fuel_abs="152050.958762" electricity_abs="0"/>
    </tripinfo>
    <tripinfo id="21" depart="16.00" departLane="-173157363#7_0" departPos="5.10" departSpeed="0.00" departDelay="0.88" arrival="190.00" arrivalLane="-185327117_0" arrivalPos="57.73" arrivalSpeed="13.42" duration="174.00" routeLength="2149.83" waitingTime="1.00" waitingCount="1" stopTime="0.00" timeLoss="40.20" rerouteNo="0" devices="tripinfo_21 emissions_21" vType="DEFAULT_VEHTYPE" speedFactor="1.02" vaporized="">
        <emissions CO_abs="11112.982647" CO2_abs="707414.132912" HC_abs="67.238748" PMx_abs="13.567418" NOx_abs="290.794933" fuel_abs="225631.906062" electricity_abs="0"/>
    </tripinfo>
    <tripinfo id="39" depart="29.00" departLane="-173163551#3_0" departPos="5.10" departSpeed="0.00" departDelay="0.92" arrival="200.00" arrivalLane="-173163407#0_0" arrivalPos="48.62" arrivalSpeed="14.76" duration="171.00" routeLength="1625.17" waitingTime="35.00" waitingCount="1" stopTime="0.00" timeLoss="71.11" rerouteNo="0" devices="tripinfo_39 emissions_39" vType="DEFAULT_VEHTYPE" speedFactor="1.10" vaporized="">
        <emissions CO_abs="12867.933024" CO2_abs="593581.963946" HC_abs="71.900464" PMx_abs="11.129804" NOx_abs="243.823204" fuel_abs="189327.083731" electricity_abs="0"/>
    </tripinfo>
    <tripinfo id="141" depart="102.00" departLane="173075651#14_0" departPos="0.26" departSpeed="0.00" departDelay="0.48" arrival="203.00" arrivalLane="-173869738#0_0" arrivalPos="48.88" arrivalSpeed="15.17" duration="101.00" routeLength="1425.21" waitingTime="11.00" waitingCount="1" stopTime="0.00" timeLoss="35.78" rerouteNo="0" devices="tripinfo_141 emissions_141" vType="DEFAULT_VEHTYPE" speedFactor="1.00" vaporized="">
        <emissions CO_abs="8995.397978" CO2_abs="486116.317523" HC_abs="52.404422" PMx_abs="10.102950" NOx_abs="199.458718" fuel_abs="155048.616253" electricity_abs="0"/>
    </tripinfo>
    <tripinfo id="112" depart="81.00" departLane="-159598312#6_0" departPos="5.10" departSpeed="0.00" departDelay="0.36" arrival="204.00" arrivalLane="160289194_0" arrivalPos="81.55" arrivalSpeed="12.92" duration="123.00" routeLength="1413.38" waitingTime="0.00" waitingCount="0" stopTime="0.00" timeLoss="14.13" rerouteNo="0" devices="tripinfo_112 emissions_112" vType="DEFAULT_VEHTYPE" speedFactor="0.96" vaporized="">
        <emissions CO_abs="4059.798255" CO2_abs="345798.636423" HC_abs="26.061495" PMx_abs="5.200281" NOx_abs="133.691834" fuel_abs="110294.195427" electricity_abs="0"/>
    </tripinfo>
    <tripinfo id="47" depart="34.00" departLane="-159667519_0" departPos="5.10" departSpeed="0.00" departDelay="0.16" arrival="206.00" arrivalLane="-537568170_0" arrivalPos="109.63" arrivalSpeed="14.16" duration="172.00" routeLength="2327.19" waitingTime="0.00" waitingCount="0" stopTime="0.00" timeLoss="42.34" rerouteNo="0" devices="tripinfo_47 emissions_47" vType="DEFAULT_VEHTYPE" speedFactor="1.09" vaporized="">
        <emissions CO_abs="12774.484990" CO2_abs="829823.914376" HC_abs="77.757633" PMx_abs="16.668990" NOx_abs="344.532932" fuel_abs="264673.946201" electricity_abs="0"/>
    </tripinfo>
    <tripinfo id="167" depart="121.00" departLane="520721251#0_0" departPos="5.10" departSpeed="0.00" departDelay="0.76" arrival="206.00" arrivalLane="532714427#0_0" arrivalPos="35.80" arrivalSpeed="13.93" duration="85.00" routeLength="1200.45" waitingTime="0.00" waitingCount="0" stopTime="0.00" timeLoss="25.95" rerouteNo="0" devices="tripinfo_167 emissions_167" vType="DEFAULT_VEHTYPE" speedFactor="1.13" vaporized="">
        <emissions CO_abs="7239.232415" CO2_abs="457479.678789" HC_abs="43.852816" PMx_abs="9.495387" NOx_abs="191.682987" fuel_abs="145913.831769" electricity_abs="0"/>
    </tripinfo>
    <tripinfo id="139" depart="101.00" departLane="-182105804#0_0" departPos="5.10" departSpeed="0.00" departDelay="0.92" arrival="209.00" arrivalLane="163335438#4_0" arrivalPos="10.28" arrivalSpeed="7.00" duration="108.00" routeLength="1226.15" waitingTime="0.00" waitingCount="0" stopTime="0.00" timeLoss="25.44" rerouteNo="0" devices="tripinfo_139 emissions_139" vType="DEFAULT_VEHTYPE" speedFactor="1.12" vaporized="">
        <emissions CO_abs="5634.602152" CO2_abs="387821.551388" HC_abs="34.430947" PMx_abs="7.028591" NOx_abs="158.335379" fuel_abs="123696.858426" electricity_abs="0"/>
    </tripinfo>
    <tripinfo id="210" depart="152.00" departLane="-652919170_0" departPos="5.10" departSpeed="0.00" departDelay="0.80" arrival="209.00" arrivalLane="173075651#16_0" arrivalPos="10.35" arrivalSpeed="17.31" duration="57.00" routeLength="632.85" waitingTime="0.00" waitingCount="0" stopTime="0.00" timeLoss="16.63" rerouteNo="0" devices="tripinfo_210 emissions_210" vType="DEFAULT_VEHTYPE" speedFactor="1.11" vaporized="">
        <emissions CO_abs="3607.179545" CO2_abs="234093.866428" HC_abs="21.855659" PMx_abs="4.384120" NOx_abs="96.843702" fuel_abs="74664.916858" electricity_abs="0"/>
    </tripinfo>
    <tripinfo id="65" depart="47.00" departLane="-208937196#2_0" departPos="5.10" departSpeed="0.00" departDelay="0.20" arrival="216.00" arrivalLane="-159607450_0" arrivalPos="87.45" arrivalSpeed="14.06" duration="169.00" routeLength="1700.54" waitingTime="42.00" waitingCount="1" stopTime="0.00" timeLoss="79.95" rerouteNo="0" devices="tripinfo_65 emissions_65" vType="DEFAULT_VEHTYPE" speedFactor="1.02" vaporized="">
        <emissions CO_abs="16512.548317" CO2_abs="733990.586028" HC_abs="92.543145" PMx_abs="15.329354" NOx_abs="310.562399" fuel_abs="234110.226591" electricity_abs="0"/>
    </tripinfo>
    <tripinfo id="87" depart="63.00" departLane="197423567#0_0" departPos="5.10" departSpeed="0.00" departDelay="0.36" arrival="219.00" arrivalLane="-173102111#1_0" arrivalPos="32.55" arrivalSpeed="15.17" duration="156.00" routeLength="2028.41" waitingTime="27.00" waitingCount="1" stopTime="0.00" timeLoss="70.12" rerouteNo="0" devices="tripinfo_87 emissions_87" vType="DEFAULT_VEHTYPE" speedFactor="1.15" vaporized="">
        <emissions CO_abs="18195.103179" CO2_abs="923825.931225" HC_abs="105.164168" PMx_abs="20.165879" NOx_abs="393.157865" fuel_abs="294656.882739" electricity_abs="0"/>
    </tripinfo>
    <tripinfo id="4" depart="3.00" departLane="-657337395_0" departPos="5.10" departSpeed="0.00" departDelay="0.12" arrival="220.00" arrivalLane="-157940059#6_0" arrivalPos="87.02" arrivalSpeed="14.09" duration="217.00" routeLength="2726.09" waitingTime="3.00" waitingCount="1" stopTime="0.00" timeLoss="59.65" rerouteNo="0" devices="tripinfo_4 emissions_4" vType="DEFAULT_VEHTYPE" speedFactor="1.03" vaporized="">
        <emissions CO_abs="15318.694682" CO2_abs="970932.643938" HC_abs="92.448143" PMx_abs="19.118918" NOx_abs="403.311128" fuel_abs="309681.270149" electricity_abs="0"/>
    </tripinfo>
    <tripinfo id="110" depart="80.00" departLane="932552022_0" departPos="5.10" departSpeed="0.00" departDelay="0.80" arrival="228.00" arrivalLane="160287960#0_0" arrivalPos="16.70" arrivalSpeed="10.62" duration="148.00" routeLength="2631.02" waitingTime="0.00" waitingCount="0" stopTime="0.00" timeLoss="32.19" rerouteNo="0" devices="tripinfo_110 emissions_110" vType="DEFAULT_VEHTYPE" speedFactor="1.03" vaporized="">
        <emissions CO_abs="11499.124813" CO2_abs="811578.064450" HC_abs="71.703413" PMx_abs="16.670374" NOx_abs="329.337443" fuel_abs="258854.036127" electricity_abs="0"/>
    </tripinfo>
    <tripinfo id="52" depart="38.00" departLane="-173163574#0_0" departPos="5.10" departSpeed="0.00" departDelay="0.56" arrival="232.00" arrivalLane="173075802_0" arrivalPos="83.36" arrivalSpeed="10.99" duration="194.00" routeLength="2303.93" waitingTime="0.00" waitingCount="0" stopTime="0.00" timeLoss="37.86" rerouteNo="0" devices="tripinfo_52 emissions_52" vType="DEFAULT_VEHTYPE" speedFactor="0.85" vaporized="">
        <emissions CO_abs="10055.758848" CO2_abs="688648.434900" HC_abs="61.806197" PMx_abs="12.321965" NOx_abs="277.124624" fuel_abs="219647.059688" electricity_abs="0"/>
    </tripinfo>
    <tripinfo id="143" depart="103.00" departLane="334682518_0" departPos="5.10" departSpeed="0.00" departDelay="0.04" arrival="233.00" arrivalLane="-160056863#10_0" arrivalPos="205.83" arrivalSpeed="12.31" duration="130.00" routeLength="1476.33" waitingTime="0.00" waitingCount="0" stopTime="0.00" timeLoss="21.04" rerouteNo="0" devices="tripinfo_143 emissions_143" vType="DEFAULT_VEHTYPE" speedFactor="1.11" vaporized="">
        <emissions CO_abs="5606.916678" CO2_abs="415087.486130" HC_abs="34.698017" PMx_abs="6.759352" NOx_abs="163.847341" fuel_abs="132394.027599" electricity_abs="0"/>
    </tripinfo>
    <tripinfo id="58" depart="42.00" departLane="-196932504_0" departPos="5.10" departSpeed="0.00" departDelay="0.24" arrival="234.00" arrivalLane="173075773_0" arrivalPos="156.29" arrivalSpeed="13.11" duration="192.00" routeLength="2773.28" waitingTime="0.00" waitingCount="0" stopTime="0.00" timeLoss="50.37" rerouteNo="0" devices="tripinfo_58 emissions_58" vType="DEFAULT_VEHTYPE" speedFactor="1.00" vaporized="">
        <emissions CO_abs="15073.539875" CO2_abs="1003285.143455" HC_abs="92.541808" PMx_abs="20.591217" NOx_abs="417.019104" fuel_abs="319999.191816" electricity_abs="0"/>
    </tripinfo>
    <tripinfo id="121" depart="88.00" departLane="159598306#1_0" departPos="5.10" departSpeed="0.00" departDelay="0.88" arrival="235.00" arrivalLane="654320593#5_0" arrivalPos="76.75" arrivalSpeed="10.38" duration="147.00" routeLength="1894.43" waitingTime="5.00" waitingCount="1" stopTime="0.00" timeLoss="35.23" rerouteNo="0" devices="tripinfo_121 emissions_121" vType="DEFAULT_VEHTYPE" speedFactor="0.99" vaporized="">
        <emissions CO_abs="9447.430695" CO2_abs="584030.687497" HC_abs="56.981386" PMx_abs="11.233014" NOx_abs="237.591743" fuel_abs="186278.748931" electricity_abs="0"/>
    </tripinfo>
    <tripinfo id="74" depart="54.00" departLane="-173085052#1_0" departPos="5.10" departSpeed="0.00" departDelay="0.72" arrival="236.00" arrivalLane="-197423567#0_0" arrivalPos="22.20" arrivalSpeed="12.58" duration="182.00" routeLength="2758.33" waitingTime="0.00" waitingCount="0" stopTime="0.00" timeLoss="42.85" rerouteNo="0" devices="tripinfo_74 emissions_74" vType="DEFAULT_VEHTYPE" speedFactor="0.97" vaporized="">
        <emissions CO_abs="14536.271986" CO2_abs="969379.544912" HC_abs="89.450342" PMx_abs="19.963050" NOx_abs="402.778180" fuel_abs="309184.968424" electricity_abs="0"/>
    </tripinfo>
    <tripinfo id="27" depart="20.00" departLane="173075865#0_0" departPos="1.06" departSpeed="0.00" departDelay="0.56" arrival="237.00" arrivalLane="173070186#2_0" arrivalPos="14.57" arrivalSpeed="12.74" duration="217.00" routeLength="1670.17" waitingTime="77.00" waitingCount="2" stopTime="0.00" timeLoss="110.38" rerouteNo="0" devices="tripinfo_27 emissions_27" vType="DEFAULT_VEHTYPE" speedFactor="0.92" vaporized="">
        <emissions CO_abs="21216.464144" CO2_abs="757596.140072" HC_abs="114.286832" PMx_abs="15.504898" NOx_abs="319.680570" fuel_abs="241642.302910" electricity_abs="0"/>
    </tripinfo>
    <tripinfo id="14" depart="11.00" departLane="353547031#0_0" departPos="5.10" departSpeed="0.00" departDelay="0.92" arrival="239.00" arrivalLane="163335433#11_0" arrivalPos="11.12" arrivalSpeed="15.07" duration="228.00" routeLength="3115.23" waitingTime="3.00" waitingCount="2" stopTime="0.00" timeLoss="68.06" rerouteNo="0" devices="tripinfo_14 emissions_14" vType="DEFAULT_VEHTYPE" speedFactor="1.12" vaporized="">
        <emissions CO_abs="16583.145359" CO2_abs="1084746.120130" HC_abs="100.868339" PMx_abs="21.620597" NOx_abs="449.780430" fuel_abs="345981.916081" electricity_abs="0"/>
    </tripinfo>
    <tripinfo id="84" depart="61.00" departLane="-173157283#1_0" departPos="5.10" departSpeed="0.00" departDelay="0.52" arrival="239.00" arrivalLane="-163335438#0_0" arrivalPos="5.24" arrivalSpeed="12.60" duration="178.00" routeLength="2248.57" waitingTime="0.00" waitingCount="0" stopTime="0.00" timeLoss="35.83" rerouteNo="0" devices="tripinfo_84 emissions_84" vType="DEFAULT_VEHTYPE" speedFactor="1.00" vaporized="">
        <emissions CO_abs="9522.239073" CO2_abs="680340.856931" HC_abs="58.903881" PMx_abs="12.354395" NOx_abs="274.734761" fuel_abs="216996.827346" electricity_abs="0"/>
    </tripinfo>
    <tripinfo id="169" depart="122.00" departLane="1163037322#1_0" departPos="5.10" departSpeed="0.00" departDelay="0.32" arrival="245.00" arrivalLane="-196932514#1_0" arrivalPos="45.73" arrivalSpeed="12.53" duration="123.00" routeLength="1533.97" waitingTime="0.00" waitingCount="0" stopTime="0.00" timeLoss="24.21" rerouteNo="0" devices="tripinfo_169 emissions_169" vType="DEFAULT_VEHTYPE" speedFactor="0.91" vaporized="">
        <emissions CO_abs="7340.186454" CO2_abs="485373.060496" HC_abs="44.614773" PMx_abs="9.053195" NOx_abs="196.120462" fuel_abs="154811.414211" electricity_abs="0"/>
    </tripinfo>
    <tripinfo id="105" depart="76.00" departLane="-173163552#0_0" departPos="5.10" departSpeed="0.00" departDelay="0.40" arrival="246.00" arrivalLane="197203911#5_0" arrivalPos="18.84" arrivalSpeed="12.30" duration="170.00" routeLength="2255.93" waitingTime="0.00" waitingCount="0" stopTime="0.00" timeLoss="33.91" rerouteNo="0" devices="tripinfo_105 emissions_105" vType="DEFAULT_VEHTYPE" speedFactor="0.97" vaporized="">
        <emissions CO_abs="11704.361142" CO2_abs="778034.076337" HC_abs="71.665437" PMx_abs="15.308931" NOx_abs="320.866498" fuel_abs="248155.712056" electricity_abs="0"/>
    </tripinfo>
    <tripinfo id="236" depart="170.00" departLane="-654022533_0" departPos="5.10" departSpeed="0.00" departDelay="0.08" arrival="246.00" arrivalLane="-173157345_0" arrivalPos="172.10" arrivalSpeed="12.79" duration="76.00" routeLength="775.36" waitingTime="0.00" waitingCount="0" stopTime="0.00" timeLoss="15.70" rerouteNo="0" devices="tripinfo_236 emissions_236" vType="DEFAULT_VEHTYPE" speedFactor="0.99" vaporized="">
        <emissions CO_abs="4008.715467" CO2_abs="260759.240114" HC_abs="24.182429" PMx_abs="4.512766" NOx_abs="105.902325" fuel_abs="83170.304974" electricity_abs="0"/>
    </tripinfo>
    <tripinfo id="137" depart="99.00" departLane="-163335426#0_0" departPos="5.10" departSpeed="0.00" departDelay="0.36" arrival="249.00" arrivalLane="-160289210#0_0" arrivalPos="27.82" arrivalSpeed="15.52" duration="150.00" routeLength="1900.99" waitingTime="0.00" waitingCount="0" stopTime="0.00" timeLoss="28.60" rerouteNo="0" devices="tripinfo_137 emissions_137" vType="DEFAULT_VEHTYPE" speedFactor="1.23" vaporized="">
        <emissions CO_abs="8028.012902" CO2_abs="597898.303913" HC_abs="49.903405" PMx_abs="10.852648" NOx_abs="242.536203" fuel_abs="190701.107612" electricity_abs="0"/>
    </tripinfo>
    <tripinfo id="5" depart="4.00" departLane="-173157323#1_0" departPos="5.10" departSpeed="0.00" departDelay="0.40" arrival="261.00" arrivalLane="159598275#1_0" arrivalPos="38.85" arrivalSpeed="10.28" duration="257.00" routeLength="3623.95" waitingTime="0.00" waitingCount="0" stopTime="0.00" timeLoss="42.40" rerouteNo="0" devices="tripinfo_5 emissions_5" vType="DEFAULT_VEHTYPE" speedFactor="0.83" vaporized="">
        <emissions CO_abs="12972.782793" CO2_abs="985821.195789" HC_abs="81.766707" PMx_abs="17.999865" NOx_abs="389.863725" fuel_abs="314430.654277" electricity_abs="0"/>
    </tripinfo>
    <tripinfo id="0" depart="0.00" departLane="173075668#0_0" departPos="5.10" departSpeed="0.00" departDelay="0.00" arrival="262.00" arrivalLane="-157161074#7_0" arrivalPos="131.11" arrivalSpeed="14.42" duration="262.00" routeLength="3576.64" waitingTime="35.00" waitingCount="1" stopTime="0.00" timeLoss="86.61" rerouteNo="0" devices="tripinfo_0 emissions_0" vType="DEFAULT_VEHTYPE" speedFactor="1.06" vaporized="">
        <emissions CO_abs="22046.219490" CO2_abs="1218366.114353" HC_abs="129.062840" PMx_abs="24.612578" NOx_abs="495.765007" fuel_abs="388602.977681" electricity_abs="0"/>
    </tripinfo>
    <tripinfo id="90" depart="65.00" departLane="173159430#0_0" departPos="5.10" departSpeed="0.00" departDelay="0.20" arrival="263.00" arrivalLane="173085046_0" arrivalPos="39.71" arrivalSpeed="13.04" duration="198.00" routeLength="2512.52" waitingTime="1.00" waitingCount="1" stopTime="0.00" timeLoss="45.65" rerouteNo="0" devices="tripinfo_90 emissions_90" vType="DEFAULT_VEHTYPE" speedFactor="1.04" vaporized="">
        <emissions CO_abs="10208.713701" CO2_abs="743104.691582" HC_abs="62.931554" PMx_abs="13.127278" NOx_abs="296.935448" fuel_abs="237015.722053" electricity_abs="0"/>
    </tripinfo>
    <tripinfo id="217" depart="157.00" departLane="159598289#2_0" departPos="5.10" departSpeed="0.00" departDelay="0.76" arrival="264.00" arrivalLane="-159598297_0" arrivalPos="171.03" arrivalSpeed="15.30" duration="107.00" routeLength="1261.21" waitingTime="0.00" waitingCount="0" stopTime="0.00" timeLoss="38.30" rerouteNo="0" devices="tripinfo_217 emissions_217" vType="DEFAULT_VEHTYPE" speedFactor="1.10" vaporized="">
        <emissions CO_abs="7963.412545" CO2_abs="492735.508117" HC_abs="47.880185" PMx_abs="9.781396" NOx_abs="206.492413" fuel_abs="157159.124237" electricity_abs="0"/>
    </tripinfo>
    <tripinfo id="154" depart="111.00" departLane="196885601#6_0" departPos="5.10" departSpeed="0.00" departDelay="0.12" arrival="265.00" arrivalLane="533142955_0" arrivalPos="42.70" arrivalSpeed="12.17" duration="154.00" routeLength="2186.32" waitingTime="2.00" waitingCount="1" stopTime="0.00" timeLoss="39.90" rerouteNo="0" devices="tripinfo_154 emissions_154" vType="DEFAULT_VEHTYPE" speedFactor="0.96" vaporized="">
        <emissions CO_abs="10559.577303" CO2_abs="697396.865905" HC_abs="64.405467" PMx_abs="13.639521" NOx_abs="285.474441" fuel_abs="222436.448163" electricity_abs="0"/>
    </tripinfo>
    <tripinfo id="172" depart="124.00" departLane="-385949107_0" departPos="5.10" departSpeed="0.00" departDelay="0.16" arrival="269.00" arrivalLane="533828802#1_0" arrivalPos="67.84" arrivalSpeed="21.58" duration="145.00" routeLength="2044.51" waitingTime="0.00" waitingCount="0" stopTime="0.00" timeLoss="20.17" rerouteNo="0" devices="tripinfo_172 emissions_172" vType="DEFAULT_VEHTYPE" speedFactor="0.98" vaporized="">