<?xml version="1.0" encoding="UTF-8"?>

<!-- generated on 2025-10-06 13:25:01 by Eclipse SUMO GUI Version 1.24.0
<sumoConfiguration xmlns:xsi="http://www.w3.org/2001/XMLSchema-instance" xsi:noNamespaceSchemaLocation="http://sumo.dlr.de/xsd/sumoConfiguration.xsd">

    <input>
        <net-file value="scenarios/from_osm/osm.net.xml"/>
        <route-files value="scenarios/from_osm/osm.rou.xml"/>
    </input>

    <output>
        <emission-output value="scenarios/from_osm/emissions.xml"/>
        <queue-output value="scenarios/from_osm/queueinfo.xml"/>
        <tripinfo-output value="scenarios/from_osm/tripinfo.xml"/>
    </output>

    <processing>
        <time-to-teleport value="-1"/>
    </processing>

    <report>
        <log value="logs/sumo_simulation.log"/>
    </report>

    <traci_server>
        <remote-port value="8813"/>
    </traci_server>

</sumoConfiguration>
-->

<tripinfos xmlns:xsi="http://www.w3.org/2001/XMLSchema-instance" xsi:noNamespaceSchemaLocation="http://sumo.dlr.de/xsd/tripinfo_file.xsd">
    <tripinfo id="51" depart="37.00" departLane="-160287939#1_0" departPos="5.10" departSpeed="0.00" departDelay="0.28" arrival="96.00" arrivalLane="-945598230_0" arrivalPos="14.53" arrivalSpeed="11.29" duration="59.00" routeLength="579.03" waitingTime="0.00" waitingCount="0" stopTime="0.00" timeLoss="21.34" rerouteNo="0" devices="tripinfo_51 emissions_51" vType="DEFAULT_VEHTYPE" speedFactor="1.17" vaporized="">
        <emissions CO_abs="1419.63" CO2_abs="222684.04" HC_abs="9.38" PMx_abs="13.70" NOx_abs="72.86" fuel_abs="72190.55" electricity_abs="0.00"/>
    </tripinfo>
    <tripinfo id="2" depart="2.00" departLane="173159456_0" departPos="5.10" departSpeed="0.00" departDelay="0.56" arrival="110.00" arrivalLane="173085075#0_0" arrivalPos="44.22" arrivalSpeed="15.30" duration="108.00" routeLength="1195.67" waitingTime="0.00" waitingCount="0" stopTime="0.00" timeLoss="21.30" rerouteNo="0" devices="tripinfo_2 emissions_2" vType="DEFAULT_VEHTYPE" speedFactor="1.01" vaporized="">
        <emissions CO_abs="2159.62" CO2_abs="333328.46" HC_abs="14.33" PMx_abs="26.93" NOx_abs="113.02" fuel_abs="108060.08" electricity_abs="0.00"/>
    </tripinfo>
    <tripinfo id="36" depart="26.00" departLane="173082202_0" departPos="5.10" departSpeed="0.00" departDelay="0.08" arrival="113.00" arrivalLane="-546132097_0" arrivalPos="30.97" arrivalSpeed="12.09" duration="87.00" routeLength="887.91" waitingTime="0.00" waitingCount="0" stopTime="0.00" timeLoss="18.76" rerouteNo="0" devices="tripinfo_36 emissions_36" vType="DEFAULT_VEHTYPE" speedFactor="0.97" vaporized="">
        <emissions CO_abs="1508.82" CO2_abs="259723.69" HC_abs="10.00" PMx_abs="19.07" NOx_abs="85.86" fuel_abs="84198.44" electricity_abs="0.00"/>
    </tripinfo>
    <tripinfo id="14" depart="11.00" departLane="197423567#0_0" departPos="5.10" departSpeed="0.00" departDelay="0.92" arrival="118.00" arrivalLane="173163400#3_0" arrivalPos="54.70" arrivalSpeed="13.68" duration="107.00" routeLength="1129.29" waitingTime="0.00" waitingCount="0" stopTime="0.00" timeLoss="13.60" rerouteNo="0" devices="tripinfo_14 emissions_14" vType="DEFAULT_VEHTYPE" speedFactor="0.99" vaporized="">
        <emissions CO_abs="1468.04" CO2_abs="264993.42" HC_abs="9.77" PMx_abs="24.71" NOx_abs="90.76" fuel_abs="85907.24" electricity_abs="0.00"/>
    </tripinfo>
    <tripinfo id="31" depart="23.00" departLane="332465801#29_0" departPos="5.10" departSpeed="0.00" departDelay="0.68" arrival="121.00" arrivalLane="196885601#11_0" arrivalPos="58.17" arrivalSpeed="15.07" duration="98.00" routeLength="1523.71" waitingTime="0.00" waitingCount="0" stopTime="0.00" timeLoss="33.41" rerouteNo="0" devices="tripinfo_31 emissions_31" vType="DEFAULT_VEHTYPE" speedFactor="1.15" vaporized="">
        <emissions CO_abs="7342.93" CO2_abs="577845.42" HC_abs="48.83" PMx_abs="46.02" NOx_abs="226.32" fuel_abs="187326.63" electricity_abs="0.00"/>
    </tripinfo>
    <tripinfo id="57" depart="42.00" departLane="182105811#0_0" departPos="5.10" departSpeed="0.00" departDelay="0.96" arrival="126.00" arrivalLane="160056786#10_0" arrivalPos="55.15" arrivalSpeed="15.44" duration="84.00" routeLength="926.33" waitingTime="0.00" waitingCount="0" stopTime="0.00" timeLoss="20.92" rerouteNo="0" devices="tripinfo_57 emissions_57" vType="DEFAULT_VEHTYPE" speedFactor="1.14" vaporized="">
        <emissions CO_abs="1923.31" CO2_abs="289339.67" HC_abs="12.76" PMx_abs="21.96" NOx_abs="96.88" fuel_abs="93799.38" electricity_abs="0.00"/>
    </tripinfo>
    <tripinfo id="46" depart="34.00" departLane="967728692#1_0" departPos="5.10" departSpeed="0.00" departDelay="0.88" arrival="127.00" arrivalLane="159758967#1_0" arrivalPos="19.02" arrivalSpeed="12.08" duration="93.00" routeLength="982.91" waitingTime="0.00" waitingCount="0" stopTime="0.00" timeLoss="24.05" rerouteNo="0" devices="tripinfo_46 emissions_46" vType="DEFAULT_VEHTYPE" speedFactor="1.00" vaporized="">
        <emissions CO_abs="2262.88" CO2_abs="325041.99" HC_abs="15.00" PMx_abs="23.97" NOx_abs="110.24" fuel_abs="105373.48" electricity_abs="0.00"/>
    </tripinfo>
    <tripinfo id="44" depart="32.00" departLane="187735567_0" departPos="5.10" departSpeed="0.00" departDelay="0.32" arrival="128.00" arrivalLane="-866928905#0_0" arrivalPos="34.57" arrivalSpeed="22.89" duration="96.00" routeLength="1428.71" waitingTime="2.00" waitingCount="1" stopTime="0.00" timeLoss="33.35" rerouteNo="0" devices="tripinfo_44 emissions_44" vType="DEFAULT_VEHTYPE" speedFactor="1.04" vaporized="">
        <emissions CO_abs="5697.31" CO2_abs="502383.46" HC_abs="38.07" PMx_abs="43.72" NOx_abs="189.54" fuel_abs="162864.05" electricity_abs="0.00"/>
    </tripinfo>
    <tripinfo id="12" depart="9.00" departLane="-160056863#8_0" departPos="5.10" departSpeed="0.00" departDelay="0.36" arrival="138.00" arrivalLane="-160060835_0" arrivalPos="106.15" arrivalSpeed="13.79" duration="129.00" routeLength="1210.96" waitingTime="0.00" waitingCount="0" stopTime="0.00" timeLoss="19.62" rerouteNo="0" devices="tripinfo_12 emissions_12" vType="DEFAULT_VEHTYPE" speedFactor="1.05" vaporized="">
        <emissions CO_abs="1547.93" CO2_abs="320307.49" HC_abs="10.28" PMx_abs="27.23" NOx_abs="108.00" fuel_abs="103839.30" electricity_abs="0.00"/>
    </tripinfo>
    <tripinfo id="106" depart="77.00" departLane="-173075623_0" departPos="5.10" departSpeed="0.00" departDelay="0.68" arrival="142.00" arrivalLane="-187735558_0" arrivalPos="30.94" arrivalSpeed="12.02" duration="65.00" routeLength="777.76" waitingTime="0.00" waitingCount="0" stopTime="0.00" timeLoss="21.82" rerouteNo="0" devices="tripinfo_106 emissions_106" vType="DEFAULT_VEHTYPE" speedFactor="1.01" vaporized="">
        <emissions CO_abs="2824.20" CO2_abs="298785.45" HC_abs="18.79" PMx_abs="22.09" NOx_abs="106.83" fuel_abs="96861.05" electricity_abs="0.00"/>
    </tripinfo>
    <tripinfo id="76" depart="55.00" departLane="-173157382#1_0" departPos="5.10" departSpeed="0.00" departDelay="0.28" arrival="148.00" arrivalLane="-173157406#8_0" arrivalPos="96.58" arrivalSpeed="19.03" duration="93.00" routeLength="1182.90" waitingTime="0.00" waitingCount="0" stopTime="0.00" timeLoss="22.79" rerouteNo="0" devices="tripinfo_76 emissions_76" vType="DEFAULT_VEHTYPE" speedFactor="1.03" vaporized="">
        <emissions CO_abs="3644.30" CO2_abs="381155.60" HC_abs="24.21" PMx_abs="30.58" NOx_abs="139.35" fuel_abs="123564.23" electricity_abs="0.00"/>
    </tripinfo>
    <tripinfo id="121" depart="88.00" departLane="173085038_0" departPos="5.10" departSpeed="0.00" departDelay="0.88" arrival="151.00" arrivalLane="-188825472_0" arrivalPos="41.75" arrivalSpeed="15.15" duration="63.00" routeLength="740.24" waitingTime="0.00" waitingCount="0" stopTime="0.00" timeLoss="12.13" rerouteNo="0" devices="tripinfo_121 emissions_121" vType="DEFAULT_VEHTYPE" speedFactor="1.10" vaporized="">
        <emissions CO_abs="1345.10" CO2_abs="208550.82" HC_abs="8.95" PMx_abs="18.57" NOx_abs="70.65" fuel_abs="67609.07" electricity_abs="0.00"/>
    </tripinfo>
    <tripinfo id="15" depart="11.00" departLane="159758947#3_0" departPos="5.10" departSpeed="0.00" departDelay="0.20" arrival="155.00" arrivalLane="932918003_0" arrivalPos="42.42" arrivalSpeed="6.78" duration="144.00" routeLength="1957.55" waitingTime="0.00" waitingCount="0" stopTime="0.00" timeLoss="34.67" rerouteNo="0" devices="tripinfo_15 emissions_15" vType="DEFAULT_VEHTYPE" speedFactor="0.93" vaporized="">
        <emissions CO_abs="6013.12" CO2_abs="598669.06" HC_abs="40.06" PMx_abs="52.16" NOx_abs="221.15" fuel_abs="194078.63" electricity_abs="0.00"/>
    </tripinfo>
    <tripinfo id="78" depart="57.00" departLane="-173157370#1_0" departPos="5.10" departSpeed="0.00" departDelay="0.84" arrival="155.00" arrivalLane="546860537#2_0" arrivalPos="32.50" arrivalSpeed="12.70" duration="98.00" routeLength="1165.21" waitingTime="0.00" waitingCount="0" stopTime="0.00" timeLoss="13.13" rerouteNo="0" devices="tripinfo_78 emissions_78" vType="DEFAULT_VEHTYPE" speedFactor="1.01" vaporized="">
        <emissions CO_abs="1341.50" CO2_abs="238288.47" HC_abs="8.98" PMx_abs="25.48" NOx_abs="81.88" fuel_abs="77249.92" electricity_abs="0.00"/>
    </tripinfo>
    <tripinfo id="23" depart="17.00" departLane="173075652#0_0" departPos="5.10" departSpeed="0.00" departDelay="0.44" arrival="159.00" arrivalLane="-520721251#1_0" arrivalPos="0.12" arrivalSpeed="4.83" duration="142.00" routeLength="1982.25" waitingTime="0.00" waitingCount="0" stopTime="0.00" timeLoss="32.74" rerouteNo="0" devices="tripinfo_23 emissions_23" vType="DEFAULT_VEHTYPE" speedFactor="0.89" vaporized="">
        <emissions CO_abs="4996.16" CO2_abs="528245.14" HC_abs="33.30" PMx_abs="48.49" NOx_abs="194.11" fuel_abs="171248.53" electricity_abs="0.00"/>
    </tripinfo>
    <tripinfo id="130" depart="94.00" departLane="163294295#0_0" departPos="5.10" departSpeed="0.00" departDelay="0.40" arrival="183.00" arrivalLane="945299996_0" arrivalPos="180.96" arrivalSpeed="14.19" duration="89.00" routeLength="1318.54" waitingTime="0.00" waitingCount="0" stopTime="0.00" timeLoss="23.02" rerouteNo="0" devices="tripinfo_130 emissions_130" vType="DEFAULT_VEHTYPE" speedFactor="1.03" vaporized="">
        <emissions CO_abs="4802.49" CO2_abs="429391.74" HC_abs="31.97" PMx_abs="36.60" NOx_abs="163.40" fuel_abs="139201.40" electricity_abs="0.00"/>
    </tripinfo>
    <tripinfo id="73" depart="53.00" departLane="-932630551#6_0" departPos="5.10" departSpeed="0.00" departDelay="0.44" arrival="184.00" arrivalLane="159607463_0" arrivalPos="122.37" arrivalSpeed="14.25" duration="131.00" routeLength="1651.35" waitingTime="29.00" waitingCount="1" stopTime="0.00" timeLoss="58.29" rerouteNo="0" devices="tripinfo_73 emissions_73" vType="DEFAULT_VEHTYPE" speedFactor="1.06" vaporized="">
        <emissions CO_abs="5957.42" CO2_abs="562576.09" HC_abs="39.96" PMx_abs="49.59" NOx_abs="213.79" fuel_abs="182378.17" electricity_abs="0.00"/>
    </tripinfo>
    <tripinfo id="20" depart="15.00" departLane="-173157363#7_0" departPos="5.10" departSpeed="0.00" departDelay="0.60" arrival="185.00" arrivalLane="-185327117_0" arrivalPos="57.73" arrivalSpeed="13.72" duration="170.00" routeLength="2149.83" waitingTime="0.00" waitingCount="0" stopTime="0.00" timeLoss="35.82" rerouteNo="0" devices="tripinfo_20 emissions_20" vType="DEFAULT_VEHTYPE" speedFactor="1.02" vaporized="">
        <emissions CO_abs="5501.48" CO2_abs="609160.84" HC_abs="36.66" PMx_abs="53.95" NOx_abs="221.46" fuel_abs="197480.20" electricity_abs="0.00"/>
    </tripinfo>
    <tripinfo id="79" depart="57.00" departLane="410045890#7_0" departPos="5.10" departSpeed="0.00" departDelay="0.12" arrival="189.00" arrivalLane="-160056774#0_0" arrivalPos="96.44" arrivalSpeed="14.50" duration="132.00" routeLength="983.07" waitingTime="48.00" waitingCount="1" stopTime="0.00" timeLoss="68.47" rerouteNo="0" devices="tripinfo_79 emissions_79" vType="DEFAULT_VEHTYPE" speedFactor="1.09" vaporized="">
        <emissions CO_abs="2122.83" CO2_abs="367363.83" HC_abs="14.10" PMx_abs="23.60" NOx_abs="130.45" fuel_abs="119094.37" electricity_abs="0.00"/>
    </tripinfo>
    <tripinfo id="38" depart="28.00" departLane="-173163551#3_0" departPos="5.10" departSpeed="0.00" departDelay="0.64" arrival="201.00" arrivalLane="-173163407#0_0" arrivalPos="48.62" arrivalSpeed="15.15" duration="173.00" routeLength="1625.17" waitingTime="36.00" waitingCount="1" stopTime="0.00" timeLoss="71.43" rerouteNo="0" devices="tripinfo_38 emissions_38" vType="DEFAULT_VEHTYPE" speedFactor="1.10" vaporized="">
        <emissions CO_abs="3181.55" CO2_abs="510155.32" HC_abs="21.18" PMx_abs="41.13" NOx_abs="179.79" fuel_abs="165385.21" electricity_abs="0.00"/>
    </tripinfo>
    <tripinfo id="45" depart="33.00" departLane="-159667519_0" departPos="5.10" departSpeed="0.00" departDelay="0.60" arrival="204.00" arrivalLane="-537568170_0" arrivalPos="109.63" arrivalSpeed="13.89" duration="171.00" routeLength="2327.19" waitingTime="0.00" waitingCount="0" stopTime="0.00" timeLoss="40.31" rerouteNo="0" devices="tripinfo_45 emissions_45" vType="DEFAULT_VEHTYPE" speedFactor="1.09" vaporized="">
        <emissions CO_abs="7327.73" CO2_abs="734947.22" HC_abs="48.81" PMx_abs="62.25" NOx_abs="270.25" fuel_abs="238257.71" electricity_abs="0.00"/>
    </tripinfo>
    <tripinfo id="203" depart="147.00" departLane="-652919170_0" departPos="5.10" departSpeed="0.00" departDelay="0.84" arrival="205.00" arrivalLane="173075651#16_0" arrivalPos="10.35" arrivalSpeed="17.83" duration="58.00" routeLength="632.85" waitingTime="0.00" waitingCount="0" stopTime="0.00" timeLoss="17.32" rerouteNo="0" devices="tripinfo_203 emissions_203" vType="DEFAULT_VEHTYPE" speedFactor="1.11" vaporized="">
        <emissions CO_abs="1506.16" CO2_abs="215288.07" HC_abs="9.99" PMx_abs="16.42" NOx_abs="73.52" fuel_abs="69793.03" electricity_abs="0.00"/>
    </tripinfo>
    <tripinfo id="109" depart="79.00" departLane="-159598312#6_0" departPos="5.10" departSpeed="0.00" departDelay="0.52" arrival="208.00" arrivalLane="160289194_0" arrivalPos="81.55" arrivalSpeed="12.33" duration="129.00" routeLength="1413.38" waitingTime="0.00" waitingCount="0" stopTime="0.00" timeLoss="20.58" rerouteNo="0" devices="tripinfo_109 emissions_109" vType="DEFAULT_VEHTYPE" speedFactor="0.96" vaporized="">
        <emissions CO_abs="1773.03" CO2_abs="322346.12" HC_abs="11.81" PMx_abs="30.05" NOx_abs="109.53" fuel_abs="104500.07" electricity_abs="0.00"/>
    </tripinfo>
    <tripinfo id="163" depart="118.00" departLane="520721251#0_0" departPos="5.10" departSpeed="0.00" departDelay="0.64" arrival="209.00" arrivalLane="532714427#0_0" arrivalPos="35.80" arrivalSpeed="13.45" duration="91.00" routeLength="1200.45" waitingTime="2.00" waitingCount="1" stopTime="0.00" timeLoss="32.28" rerouteNo="0" devices="tripinfo_163 emissions_163" vType="DEFAULT_VEHTYPE" speedFactor="1.13" vaporized="">
        <emissions CO_abs="4697.47" CO2_abs="432282.20" HC_abs="31.18" PMx_abs="32.82" NOx_abs="163.00" fuel_abs="140138.17" electricity_abs="0.00"/>
    </tripinfo>
    <tripinfo id="136" depart="98.00" departLane="-182105804#0_0" departPos="5.10" departSpeed="0.00" departDelay="0.08" arrival="213.00" arrivalLane="163335438#4_0" arrivalPos="10.28" arrivalSpeed="13.21" duration="115.00" routeLength="1237.35" waitingTime="0.00" waitingCount="0" stopTime="0.00" timeLoss="28.88" rerouteNo="0" devices="tripinfo_136 emissions_136" vType="DEFAULT_VEHTYPE" speedFactor="1.12" vaporized="">
        <emissions CO_abs="2345.81" CO2_abs="366268.83" HC_abs="15.58" PMx_abs="28.74" NOx_abs="122.93" fuel_abs="118738.76" electricity_abs="0.00"/>
    </tripinfo>
    <tripinfo id="138" depart="100.00" departLane="173075651#14_0" departPos="0.26" departSpeed="0.00" departDelay="0.64" arrival="213.00" arrivalLane="-173869738#0_0" arrivalPos="48.88" arrivalSpeed="13.13" duration="113.00" routeLength="1585.91" waitingTime="0.00" waitingCount="0" stopTime="0.00" timeLoss="46.26" rerouteNo="0" devices="tripinfo_138 emissions_138" vType="DEFAULT_VEHTYPE" speedFactor="1.00" vaporized="">
        <emissions CO_abs="7035.79" CO2_abs="605494.65" HC_abs="46.66" PMx_abs="44.39" NOx_abs="231.05" fuel_abs="196290.32" electricity_abs="0.00"/>
    </tripinfo>
    <tripinfo id="62" depart="45.00" departLane="-208937196#2_0" departPos="5.10" departSpeed="0.00" departDelay="0.36" arrival="217.00" arrivalLane="-159607450_0" arrivalPos="87.45" arrivalSpeed="12.81" duration="172.00" routeLength="1700.54" waitingTime="42.00" waitingCount="1" stopTime="0.00" timeLoss="82.12" rerouteNo="0" devices="tripinfo_62 emissions_62" vType="DEFAULT_VEHTYPE" speedFactor="1.02" vaporized="">
        <emissions CO_abs="5785.79" CO2_abs="642623.17" HC_abs="38.49" PMx_abs="46.87" NOx_abs="238.56" fuel_abs="208328.21" electricity_abs="0.00"/>
    </tripinfo>
    <tripinfo id="84" depart="61.00" departLane="197423567#0_0" departPos="5.10" departSpeed="0.00" departDelay="0.52" arrival="218.00" arrivalLane="-173102111#1_0" arrivalPos="32.55" arrivalSpeed="13.82" duration="157.00" routeLength="2028.41" waitingTime="30.00" waitingCount="1" stopTime="0.00" timeLoss="71.08" rerouteNo="0" devices="tripinfo_84 emissions_84" vType="DEFAULT_VEHTYPE" speedFactor="1.15" vaporized="">
        <emissions CO_abs="10209.63" CO2_abs="823600.95" HC_abs="67.82" PMx_abs="60.62" NOx_abs="326.10" fuel_abs="266996.30" electricity_abs="0.00"/>
    </tripinfo>
    <tripinfo id="4" depart="3.00" departLane="-657337395_0" departPos="5.10" departSpeed="0.00" departDelay="0.12" arrival="222.00" arrivalLane="-157940059#6_0" arrivalPos="87.02" arrivalSpeed="14.01" duration="219.00" routeLength="2726.09" waitingTime="2.00" waitingCount="1" stopTime="0.00" timeLoss="60.08" rerouteNo="0" devices="tripinfo_4 emissions_4" vType="DEFAULT_VEHTYPE" speedFactor="1.03" vaporized="">
        <emissions CO_abs="7472.97" CO2_abs="848509.66" HC_abs="49.69" PMx_abs="68.63" NOx_abs="303.99" fuel_abs="275073.10" electricity_abs="0.00"/>
    </tripinfo>
    <tripinfo id="107" depart="78.00" departLane="932552022_0" departPos="5.10" departSpeed="0.00" departDelay="0.96" arrival="227.00" arrivalLane="160287960#0_0" arrivalPos="16.70" arrivalSpeed="10.42" duration="149.00" routeLength="2631.02" waitingTime="0.00" waitingCount="0" stopTime="0.00" timeLoss="34.00" rerouteNo="0" devices="tripinfo_107 emissions_107" vType="DEFAULT_VEHTYPE" speedFactor="1.03" vaporized="">
        <emissions CO_abs="9027.96" CO2_abs="739228.87" HC_abs="60.41" PMx_abs="71.82" NOx_abs="285.75" fuel_abs="239645.37" electricity_abs="0.00"/>
    </tripinfo>
    <tripinfo id="50" depart="36.00" departLane="-173163574#0_0" departPos="5.10" departSpeed="0.00" departDelay="0.00" arrival="230.00" arrivalLane="173075802_0" arrivalPos="83.36" arrivalSpeed="11.69" duration="194.00" routeLength="2303.93" waitingTime="0.00" waitingCount="0" stopTime="0.00" timeLoss="39.50" rerouteNo="0" devices="tripinfo_50 emissions_50" vType="DEFAULT_VEHTYPE" speedFactor="0.85" vaporized="">
        <emissions CO_abs="4858.32" CO2_abs="611002.91" HC_abs="32.40" PMx_abs="54.93" NOx_abs="216.86" fuel_abs="198077.81" electricity_abs="0.00"/>
    </tripinfo>
    <tripinfo id="140" depart="101.00" departLane="334682518_0" departPos="5.10" departSpeed="0.00" departDelay="0.20" arrival="231.00" arrivalLane="-160056863#10_0" arrivalPos="205.83" arrivalSpeed="11.56" duration="130.00" routeLength="1476.33" waitingTime="0.00" waitingCount="0" stopTime="0.00" timeLoss="20.96" rerouteNo="0" devices="tripinfo_140 emissions_140" vType="DEFAULT_VEHTYPE" speedFactor="1.11" vaporized="">
        <emissions CO_abs="2137.86" CO2_abs="361698.77" HC_abs="14.24" PMx_abs="33.31" NOx_abs="122.72" fuel_abs="117257.58" electricity_abs="0.00"/>
    </tripinfo>
    <tripinfo id="55" depart="40.00" departLane="-196932504_0" departPos="5.10" departSpeed="0.00" departDelay="0.40" arrival="234.00" arrivalLane="173075773_0" arrivalPos="156.29" arrivalSpeed="13.05" duration="194.00" routeLength="2773.28" waitingTime="0.00" waitingCount="0" stopTime="0.00" timeLoss="51.02" rerouteNo="0" devices="tripinfo_55 emissions_55" vType="DEFAULT_VEHTYPE" speedFactor="1.00" vaporized="">
        <emissions CO_abs="9632.44" CO2_abs="883768.77" HC_abs="64.12" PMx_abs="76.02" NOx_abs="333.53" fuel_abs="286502.77" electricity_abs="0.00"/>
    </tripinfo>
    <tripinfo id="118" depart="85.00" departLane="159598306#1_0" departPos="5.10" departSpeed="0.00" departDelay="0.04" arrival="235.00" arrivalLane="654320593#5_0" arrivalPos="76.75" arrivalSpeed="10.43" duration="150.00" routeLength="1894.43" waitingTime="7.00" waitingCount="1" stopTime="0.00" timeLoss="37.68" rerouteNo="0" devices="tripinfo_118 emissions_118" vType="DEFAULT_VEHTYPE" speedFactor="0.99" vaporized="">
        <emissions CO_abs="4951.73" CO2_abs="520824.06" HC_abs="33.17" PMx_abs="49.46" NOx_abs="193.44" fuel_abs="168843.13" electricity_abs="0.00"/>
    </tripinfo>
    <tripinfo id="13" depart="10.00" departLane="353547031#0_0" departPos="5.10" departSpeed="0.00" departDelay="0.64" arrival="239.00" arrivalLane="163335433#11_0" arrivalPos="11.12" arrivalSpeed="15.58" duration="229.00" routeLength="3115.23" waitingTime="1.00" waitingCount="1" stopTime="0.00" timeLoss="69.41" rerouteNo="0" devices="tripinfo_13 emissions_13" vType="DEFAULT_VEHTYPE" speedFactor="1.12" vaporized="">
        <emissions CO_abs="10333.61" CO2_abs="992554.85" HC_abs="68.66" PMx_abs="81.28" NOx_abs="370.92" fuel_abs="321769.31" electricity_abs="0.00"/>
    </tripinfo>
    <tripinfo id="26" depart="19.00" departLane="173075865#0_0" departPos="1.06" departSpeed="0.00" departDelay="0.28" arrival="239.00" arrivalLane="173070186#2_0" arrivalPos="14.57" arrivalSpeed="11.89" duration="220.00" routeLength="1670.17" waitingTime="78.00" waitingCount="2" stopTime="0.00" timeLoss="113.02" rerouteNo="0" devices="tripinfo_26 emissions_26" vType="DEFAULT_VEHTYPE" speedFactor="0.92" vaporized="">
        <emissions CO_abs="3941.68" CO2_abs="597943.76" HC_abs="26.28" PMx_abs="40.97" NOx_abs="218.22" fuel_abs="193845.15" electricity_abs="0.00"/>
    </tripinfo>
    <tripinfo id="81" depart="59.00" departLane="-173157283#1_0" departPos="5.10" departSpeed="0.00" departDelay="0.68" arrival="239.00" arrivalLane="-163335438#0_0" arrivalPos="5.24" arrivalSpeed="12.99" duration="180.00" routeLength="2248.57" waitingTime="1.00" waitingCount="1" stopTime="0.00" timeLoss="38.15" rerouteNo="0" devices="tripinfo_81 emissions_81" vType="DEFAULT_VEHTYPE" speedFactor="1.00" vaporized="">
        <emissions CO_abs="4961.65" CO2_abs="595941.79" HC_abs="33.04" PMx_abs="54.50" NOx_abs="215.01" fuel_abs="193195.15" electricity_abs="0.00"/>
    </tripinfo>
    <tripinfo id="71" depart="52.00" departLane="-173085052#1_0" departPos="5.10" departSpeed="0.00" departDelay="0.88" arrival="241.00" arrivalLane="-197423567#0_0" arrivalPos="22.20" arrivalSpeed="12.28" duration="189.00" routeLength="2719.90" waitingTime="0.00" waitingCount="0" stopTime="0.00" timeLoss="53.95" rerouteNo="0" devices="tripinfo_71 emissions_71" vType="DEFAULT_VEHTYPE" speedFactor="0.97" vaporized="">
        <emissions CO_abs="9116.19" CO2_abs="863340.05" HC_abs="60.76" PMx_abs="74.18" NOx_abs="321.36" fuel_abs="279880.27" electricity_abs="0.00"/>
    </tripinfo>
    <tripinfo id="229" depart="165.00" departLane="-654022533_0" departPos="5.10" departSpeed="0.00" departDelay="0.12" arrival="242.00" arrivalLane="-173157345_0" arrivalPos="172.10" arrivalSpeed="13.12" duration="77.00" routeLength="775.36" waitingTime="0.00" waitingCount="0" stopTime="0.00" timeLoss="16.92" rerouteNo="0" devices="tripinfo_229 emissions_229" vType="DEFAULT_VEHTYPE" speedFactor="0.99" vaporized="">
        <emissions CO_abs="1267.93" CO2_abs="228043.52" HC_abs="8.42" PMx_abs="18.18" NOx_abs="75.58" fuel_abs="73928.32" electricity_abs="0.00"/>
    </tripinfo>
    <tripinfo id="165" depart="119.00" departLane="1163037322#1_0" departPos="5.10" departSpeed="0.00" departDelay="0.20" arrival="243.00" arrivalLane="-196932514#1_0" arrivalPos="45.73" arrivalSpeed="12.25" duration="124.00" routeLength="1533.97" waitingTime="0.00" waitingCount="0" stopTime="0.00" timeLoss="25.05" rerouteNo="0" devices="tripinfo_165 emissions_165" vType="DEFAULT_VEHTYPE" speedFactor="0.91" vaporized="">
        <emissions CO_abs="3975.54" CO2_abs="432606.53" HC_abs="26.47" PMx_abs="37.23" NOx_abs="158.02" fuel_abs="140244.05" electricity_abs="0.00"/>
    </tripinfo>
    <tripinfo id="134" depart="97.00" departLane="-163335426#0_0" departPos="5.10" departSpeed="0.00" departDelay="0.52" arrival="247.00" arrivalLane="-160289210#0_0" arrivalPos="27.82" arrivalSpeed="12.65" duration="150.00" routeLength="1900.99" waitingTime="0.00" waitingCount="0" stopTime="0.00" timeLoss="29.00" rerouteNo="0" devices="tripinfo_134 emissions_134" vType="DEFAULT_VEHTYPE" speedFactor="1.23" vaporized="">
        <emissions CO_abs="3727.89" CO2_abs="503653.79" HC_abs="24.81" PMx_abs="45.62" NOx_abs="175.14" fuel_abs="163277.02" electricity_abs="0.00"/>
    </tripinfo>
    <tripinfo id="102" depart="74.00" departLane="-173163552#0_0" departPos="5.10" departSpeed="0.00" departDelay="0.56" arrival="248.00" arrivalLane="197203911#5_0" arrivalPos="18.84" arrivalSpeed="13.44" duration="174.00" routeLength="2255.93" waitingTime="0.00" waitingCount="0" stopTime="0.00" timeLoss="37.35" rerouteNo="0" devices="tripinfo_102 emissions_102" vType="DEFAULT_VEHTYPE" speedFactor="0.97" vaporized="">
        <emissions CO_abs="6874.17" CO2_abs="688064.16" HC_abs="45.63" PMx_abs="54.82" NOx_abs="254.45" fuel_abs="223058.74" electricity_abs="0.00"/>
    </tripinfo>
    <tripinfo id="210" depart="152.00" departLane="159598289#2_0" departPos="5.10" departSpeed="0.00" departDelay="0.80" arrival="253.00" arrivalLane="-159598297_0" arrivalPos="171.03" arrivalSpeed="14.70" duration="101.00" routeLength="1261.21" waitingTime="0.00" waitingCount="0" stopTime="0.00" timeLoss="32.96" rerouteNo="0" devices="tripinfo_210 emissions_210" vType="DEFAULT_VEHTYPE" speedFactor="1.10" vaporized="">
        <emissions CO_abs="3955.38" CO2_abs="437059.70" HC_abs="26.23" PMx_abs="34.11" NOx_abs="157.40" fuel_abs="141687.55" electricity_abs="0.00"/>
    </tripinfo>
    <tripinfo id="0" depart="0.00" departLane="173075668#0_0" departPos="5.10" departSpeed="0.00" departDelay="0.00" arrival="259.00" arrivalLane="-157161074#7_0" arrivalPos="131.11" arrivalSpeed="14.37" duration="259.00" routeLength="3576.64" waitingTime="33.00" waitingCount="1" stopTime="0.00" timeLoss="83.88" rerouteNo="0" devices="tripinfo_0 emissions_0" vType="DEFAULT_VEHTYPE" speedFactor="1.06" vaporized="">
        <emissions CO_abs="11284.92" CO2_abs="1050348.80" HC_abs="75.60" PMx_abs="97.05" NOx_abs="399.28" fuel_abs="340506.19" electricity_abs="0.00"/>
    </tripinfo>
    <tripinfo id="5" depart="4.00" departLane="-173157323#1_0" departPos="5.10" departSpeed="0.00" departDelay="0.40" arrival="261.00" arrivalLane="159598275#1_0" arrivalPos="38.85" arrivalSpeed="11.48" duration="257.00" routeLength="3623.95" waitingTime="0.00" waitingCount="0" stopTime="0.00" timeLoss="41.54" rerouteNo="0" devices="tripinfo_5 emissions_5" vType="DEFAULT_VEHTYPE" speedFactor="0.83" vaporized="">
        <emissions CO_abs="8123.81" CO2_abs="865081.14" HC_abs="54.34" PMx_abs="85.94" NOx_abs="317.34" fuel_abs="280445.85" electricity_abs="0.00"/>
    </tripinfo>
    <tripinfo id="150" depart="108.00" departLane="196885601#6_0" departPos="5.10" departSpeed="0.00" departDelay="0.00" arrival="263.00" arrivalLane="533142955_0" arrivalPos="42.70" arrivalSpeed="13.22" duration="155.00" routeLength="2186.32" waitingTime="2.00" waitingCount="2" stopTime="0.00" timeLoss="39.25" rerouteNo="0" devices="tripinfo_150 emissions_150" vType="DEFAULT_VEHTYPE" speedFactor="0.96" vaporized="">
        <emissions CO_abs="6555.74" CO2_abs="627706.29" HC_abs="43.72" PMx_abs="55.27" NOx_abs="234.66" fuel_abs="203491.85" electricity_abs="0.00"/>
    </tripinfo>
    <tripinfo id="87" depart="63.00" departLane="173159430#0_0" departPos="5.10" departSpeed="0.00" departDelay="0.36" arrival="264.00" arrivalLane="173085046_0" arrivalPos="39.71" arrivalSpeed="12.58" duration="201.00" routeLength="2545.06" waitingTime="2.00" waitingCount="1" stopTime="0.00" timeLoss="45.34" rerouteNo="0" devices="tripinfo_87 emissions_87" vType="DEFAULT_VEHTYPE" speedFactor="1.04" vaporized="">
        <emissions CO_abs="5508.60" CO2_abs="673534.06" HC_abs="36.65" PMx_abs="60.43" NOx_abs="240.85" fuel_abs="218349.38" electricity_abs="0.00"/>
    </tripinfo>
    <tripinfo id="295" depart="213.00" departLane="159607481#6_0" departPos="5.10" departSpeed="0.00" departDelay="0.60" arrival="265.00" arrivalLane="-924643997#0_0" arrivalPos="4.65" arrivalSpeed="5.93" duration="52.00" routeLength="553.03" waitingTime="0.00" waitingCount="0" stopTime="0.00" timeLoss="15.45" rerouteNo="0" devices="tripinfo_295 emissions_295" vType="DEFAULT_VEHTYPE" speedFactor="0.96" vaporized="">
        <emissions CO_abs="1694.44" CO2_abs="189354.51" HC_abs="11.24" PMx_abs="13.96" NOx_abs="68.27" fuel_abs="61385.49" electricity_abs="0.00"/>
    </tripinfo>
    <tripinfo id="168" depart="121.00" departLane="-385949107_0" departPos="5.10" departSpeed="0.00" departDelay="0.04" arrival="266.00" arrivalLane="533828802#1_0" arrivalPos="67.84" arrivalSpeed="21.27" duration="145.00" routeLength="2044.51" waitingTime="0.00" waitingCount="0" stopTime="0.00" timeLoss="20.13" rerouteNo="0" devices="tripinfo_168 emissions_168" vType="DEFAULT_VEHTYPE" speedFactor="0.98" vaporized="">
        <emissions CO_abs="4426.64" CO2_abs="487961.23" HC_abs="29.60" PMx_abs="49.67" NOx_abs="178.63" fuel_abs="158189.59" electricity_abs="0.00"/>
    </tripinfo>