<?xml version="1.0" encoding="UTF-8"?>

<!-- generated on 2025-08-23 15:03:33 by Eclipse SUMO GUI Version 1.22.0
<sumoConfiguration xmlns:xsi="http://www.w3.org/2001/XMLSchema-instance" xsi:noNamespaceSchemaLocation="http://sumo.dlr.de/xsd/sumoConfiguration.xsd">

    <input>
        <net-file value="I:\UNIP\TCC\SUMO\Arq.Base\grid.net.xml"/>
        <route-files value="I:\UNIP\TCC\SUMO\Arq.Base\traffic.rou.xml"/>
        <additional-files value="I:\UNIP\TCC\SUMO\Arq.Base\detectores.add.xml"/>
    </input>

    <output>
        <emission-output value="I:\UNIP\TCC\SUMO\simulation_output\dynamic_output\emission.xml"/>
        <tripinfo-output value="I:\UNIP\TCC\SUMO\simulation_output\dynamic_output\tripinfo.xml"/>
    </output>

    <time>
        <begin value="0"/>
        <end value="3600"/>
    </time>

    <processing>
        <ignore-route-errors value="true"/>
    </processing>

    <report>
        <verbose value="true"/>
        <duration-log.statistics value="true"/>
        <no-step-log value="true"/>
    </report>

    <traci_server>
        <remote-port value="52582"/>
    </traci_server>

    <gui_only>
        <quit-on-end value="true"/>
        <start value="true"/>
    </gui_only>

</sumoConfiguration>
-->

<tripinfos xmlns:xsi="http://www.w3.org/2001/XMLSchema-instance" xsi:noNamespaceSchemaLocation="http://sumo.dlr.de/xsd/tripinfo_file.xsd">
    <tripinfo id="F_car_V_B0B3.0" depart="0.00" departLane="B0B1_0" departPos="5.10" departSpeed="0.00" departDelay="0.00" arrival="48.00" arrivalLane="B2B3_0" arrivalPos="200.00" arrivalSpeed="13.37" duration="48.00" routeLength="594.90" waitingTime="0.00" waitingCount="0" stopTime="0.00" timeLoss="5.07" rerouteNo="0" devices="tripinfo_F_car_V_B0B3.0 emissions_F_car_V_B0B3.0" vType="car" speedFactor="1.01" vaporized="">
        <emissions CO_abs="1585.130004" CO2_abs="138225.044325" HC_abs="10.186984" PMx_abs="2.052307" NOx_abs="52.730234" fuel_abs="44087.595746" electricity_abs="0"/>
    </tripinfo>
    <tripinfo id="F_car_V_B3B0.0" depart="0.00" departLane="B3B2_0" departPos="5.10" departSpeed="0.00" departDelay="0.00" arrival="48.00" arrivalLane="B1B0_0" arrivalPos="200.00" arrivalSpeed="12.62" duration="48.00" routeLength="594.90" waitingTime="0.00" waitingCount="0" stopTime="0.00" timeLoss="4.85" rerouteNo="0" devices="tripinfo_F_car_V_B3B0.0 emissions_F_car_V_B3B0.0" vType="car" speedFactor="1.08" vaporized="">
        <emissions CO_abs="1472.320041" CO2_abs="133318.166034" HC_abs="9.527662" PMx_abs="1.946842" NOx_abs="50.679295" fuel_abs="42522.514780" electricity_abs="0"/>
    </tripinfo>
    <tripinfo id="F_car_H_A0D0.0" depart="0.00" departLane="A0B0_0" departPos="5.10" departSpeed="0.00" departDelay="0.00" arrival="49.00" arrivalLane="C0D0_0" arrivalPos="200.00" arrivalSpeed="13.28" duration="49.00" routeLength="594.90" waitingTime="0.00" waitingCount="0" stopTime="0.00" timeLoss="6.04" rerouteNo="0" devices="tripinfo_F_car_H_A0D0.0 emissions_F_car_H_A0D0.0" vType="car" speedFactor="1.06" vaporized="">
        <emissions CO_abs="1846.040884" CO2_abs="147217.893999" HC_abs="11.723079" PMx_abs="2.392748" NOx_abs="58.174071" fuel_abs="46955.745377" electricity_abs="0"/>
    </tripinfo>
    <tripinfo id="F_car_H_D0A0.0" depart="0.00" departLane="D0C0_0" departPos="5.10" departSpeed="0.00" departDelay="0.00" arrival="51.00" arrivalLane="B0A0_0" arrivalPos="200.00" arrivalSpeed="11.76" duration="51.00" routeLength="594.90" waitingTime="0.00" waitingCount="0" stopTime="0.00" timeLoss="4.98" rerouteNo="0" devices="tripinfo_F_car_H_D0A0.0 emissions_F_car_H_D0A0.0" vType="car" speedFactor="0.94" vaporized="">
        <emissions CO_abs="1460.403757" CO2_abs="135347.130837" HC_abs="9.541848" PMx_abs="1.822677" NOx_abs="50.794338" fuel_abs="43169.806664" electricity_abs="0"/>
    </tripinfo>
    <tripinfo id="F_car_H_A0D0.1" depart="15.00" departLane="A0B0_0" departPos="5.10" departSpeed="0.00" departDelay="0.00" arrival="65.00" arrivalLane="C0D0_0" arrivalPos="200.00" arrivalSpeed="13.88" duration="50.00" routeLength="594.90" waitingTime="0.00" waitingCount="0" stopTime="0.00" timeLoss="6.34" rerouteNo="0" devices="tripinfo_F_car_H_A0D0.1 emissions_F_car_H_A0D0.1" vType="car" speedFactor="1.05" vaporized="">
        <emissions CO_abs="1846.645995" CO2_abs="155015.276748" HC_abs="11.765017" PMx_abs="2.373415" NOx_abs="60.045664" fuel_abs="49442.858245" electricity_abs="0"/>
    </tripinfo>
    <tripinfo id="F_car_V_B0B3.1" depart="15.00" departLane="B0B1_0" departPos="5.10" departSpeed="0.00" departDelay="0.00" arrival="67.00" arrivalLane="B2B3_0" arrivalPos="200.00" arrivalSpeed="11.99" duration="52.00" routeLength="594.90" waitingTime="0.00" waitingCount="0" stopTime="0.00" timeLoss="5.61" rerouteNo="0" devices="tripinfo_F_car_V_B0B3.1 emissions_F_car_V_B0B3.1" vType="car" speedFactor="0.94" vaporized="">
        <emissions CO_abs="1557.976714" CO2_abs="136057.099867" HC_abs="10.091897" PMx_abs="1.905050" NOx_abs="51.676988" fuel_abs="43396.233500" electricity_abs="0"/>
    </tripinfo>
    <tripinfo id="F_car_H_D0A0.1" depart="15.00" departLane="D0C0_0" departPos="5.10" departSpeed="0.00" departDelay="0.00" arrival="69.00" arrivalLane="B0A0_0" arrivalPos="200.00" arrivalSpeed="11.86" duration="54.00" routeLength="594.90" waitingTime="0.00" waitingCount="0" stopTime="0.00" timeLoss="5.09" rerouteNo="0" devices="tripinfo_F_car_H_D0A0.1 emissions_F_car_H_D0A0.1" vType="car" speedFactor="0.89" vaporized="">
        <emissions CO_abs="1766.469168" CO2_abs="138001.912029" HC_abs="11.142758" PMx_abs="2.041543" NOx_abs="53.367000" fuel_abs="44016.530179" electricity_abs="0"/>
    </tripinfo>
    <tripinfo id="F_bus_V_C0C3.0" depart="0.00" departLane="C0C1_0" departPos="12.10" departSpeed="0.00" departDelay="0.00" arrival="71.00" arrivalLane="C2C3_0" arrivalPos="200.00" arrivalSpeed="10.37" duration="71.00" routeLength="587.90" waitingTime="0.00" waitingCount="0" stopTime="0.00" timeLoss="17.98" rerouteNo="0" devices="tripinfo_F_bus_V_C0C3.0 emissions_F_bus_V_C0C3.0" vType="bus" speedFactor="1.03" vaporized="">
        <emissions CO_abs="3523.695481" CO2_abs="177043.898854" HC_abs="20.082781" PMx_abs="2.638568" NOx_abs="69.488646" fuel_abs="56469.919626" electricity_abs="0"/>
    </tripinfo>
    <tripinfo id="F_car_V_B3B0.1" depart="15.00" departLane="B3B2_0" departPos="5.10" departSpeed="0.00" departDelay="0.00" arrival="71.00" arrivalLane="B1B0_0" arrivalPos="200.00" arrivalSpeed="10.68" duration="56.00" routeLength="594.90" waitingTime="0.00" waitingCount="0" stopTime="0.00" timeLoss="5.47" rerouteNo="0" devices="tripinfo_F_car_V_B3B0.1 emissions_F_car_V_B3B0.1" vType="car" speedFactor="0.86" vaporized="">
        <emissions CO_abs="1616.374564" CO2_abs="130153.851863" HC_abs="10.306840" PMx_abs="1.763355" NOx_abs="49.368482" fuel_abs="41513.498188" electricity_abs="0"/>
    </tripinfo>
    <tripinfo id="F_bus_V_C3C0.0" depart="0.00" departLane="C3C2_0" departPos="12.10" departSpeed="0.00" departDelay="0.00" arrival="73.00" arrivalLane="C1C0_0" arrivalPos="200.00" arrivalSpeed="10.76" duration="73.00" routeLength="587.90" waitingTime="1.00" waitingCount="1" stopTime="0.00" timeLoss="19.16" rerouteNo="0" devices="tripinfo_F_bus_V_C3C0.0 emissions_F_bus_V_C3C0.0" vType="bus" speedFactor="0.83" vaporized="">
        <emissions CO_abs="3634.792240" CO2_abs="187729.821798" HC_abs="20.826239" PMx_abs="2.749916" NOx_abs="73.279615" fuel_abs="59878.301583" electricity_abs="0"/>
    </tripinfo>
    <tripinfo id="F_car_H_A0D0.2" depart="30.00" departLane="A0B0_0" departPos="5.10" departSpeed="0.00" departDelay="0.00" arrival="79.00" arrivalLane="C0D0_0" arrivalPos="200.00" arrivalSpeed="13.35" duration="49.00" routeLength="594.90" waitingTime="0.00" waitingCount="0" stopTime="0.00" timeLoss="5.24" rerouteNo="0" devices="tripinfo_F_car_H_A0D0.2 emissions_F_car_H_A0D0.2" vType="car" speedFactor="1.09" vaporized="">
        <emissions CO_abs="1647.599746" CO2_abs="135143.114156" HC_abs="10.477175" PMx_abs="2.102507" NOx_abs="52.457074" fuel_abs="43104.538450" electricity_abs="0"/>
    </tripinfo>
    <tripinfo id="F_car_V_B3B0.2" depart="30.00" departLane="B3B2_0" departPos="5.10" departSpeed="0.00" departDelay="0.00" arrival="81.00" arrivalLane="B1B0_0" arrivalPos="200.00" arrivalSpeed="13.17" duration="51.00" routeLength="594.90" waitingTime="0.00" waitingCount="0" stopTime="0.00" timeLoss="7.96" rerouteNo="0" devices="tripinfo_F_car_V_B3B0.2 emissions_F_car_V_B3B0.2" vType="car" speedFactor="1.12" vaporized="">
        <emissions CO_abs="1931.843876" CO2_abs="156190.979588" HC_abs="12.086819" PMx_abs="2.294736" NOx_abs="59.636897" fuel_abs="49818.014824" electricity_abs="0"/>
    </tripinfo>
    <tripinfo id="F_car_V_B0B3.2" depart="30.00" departLane="B0B1_0" departPos="5.10" departSpeed="0.00" departDelay="0.00" arrival="82.00" arrivalLane="B2B3_0" arrivalPos="200.00" arrivalSpeed="13.10" duration="52.00" routeLength="594.90" waitingTime="0.00" waitingCount="0" stopTime="0.00" timeLoss="8.68" rerouteNo="0" devices="tripinfo_F_car_V_B0B3.2 emissions_F_car_V_B0B3.2" vType="car" speedFactor="1.05" vaporized="">
        <emissions CO_abs="2063.742508" CO2_abs="156828.757215" HC_abs="12.859924" PMx_abs="2.475960" NOx_abs="61.453756" fuel_abs="50021.310859" electricity_abs="0"/>
    </tripinfo>
    <tripinfo id="F_car_H_D0A0.2" depart="30.00" departLane="D0C0_0" departPos="5.10" departSpeed="0.00" departDelay="0.00" arrival="85.00" arrivalLane="B0A0_0" arrivalPos="200.00" arrivalSpeed="12.89" duration="55.00" routeLength="594.90" waitingTime="2.00" waitingCount="1" stopTime="0.00" timeLoss="12.01" rerouteNo="0" devices="tripinfo_F_car_H_D0A0.2 emissions_F_car_H_D0A0.2" vType="car" speedFactor="1.03" vaporized="">
        <emissions CO_abs="2608.289157" CO2_abs="163261.304228" HC_abs="15.576226" PMx_abs="2.687715" NOx_abs="64.853440" fuel_abs="52073.171719" electricity_abs="0"/>
    </tripinfo>
    <tripinfo id="F_car_H_A0D0.3" depart="45.00" departLane="A0B0_0" departPos="5.10" departSpeed="0.00" departDelay="0.00" arrival="94.00" arrivalLane="C0D0_0" arrivalPos="200.00" arrivalSpeed="12.89" duration="49.00" routeLength="594.90" waitingTime="0.00" waitingCount="0" stopTime="0.00" timeLoss="5.27" rerouteNo="0" devices="tripinfo_F_car_H_A0D0.3 emissions_F_car_H_A0D0.3" vType="car" speedFactor="0.99" vaporized="">
        <emissions CO_abs="1557.453921" CO2_abs="135400.742242" HC_abs="10.075803" PMx_abs="2.009949" NOx_abs="51.894549" fuel_abs="43186.766899" electricity_abs="0"/>
    </tripinfo>
    <tripinfo id="F_car_V_B3B0.3" depart="45.00" departLane="B3B2_0" departPos="5.10" departSpeed="0.00" departDelay="0.00" arrival="96.00" arrivalLane="B1B0_0" arrivalPos="200.00" arrivalSpeed="12.24" duration="51.00" routeLength="594.90" waitingTime="0.00" waitingCount="0" stopTime="0.00" timeLoss="4.71" rerouteNo="0" devices="tripinfo_F_car_V_B3B0.3 emissions_F_car_V_B3B0.3" vType="car" speedFactor="0.94" vaporized="">
        <emissions CO_abs="1483.673462" CO2_abs="136134.613162" HC_abs="9.721287" PMx_abs="1.892510" NOx_abs="51.429676" fuel_abs="43420.931053" electricity_abs="0"/>
    </tripinfo>
    <tripinfo id="F_car_V_B0B3.3" depart="45.00" departLane="B0B1_0" departPos="5.10" departSpeed="0.00" departDelay="0.00" arrival="99.00" arrivalLane="B2B3_0" arrivalPos="200.00" arrivalSpeed="11.17" duration="54.00" routeLength="594.90" waitingTime="0.00" waitingCount="0" stopTime="0.00" timeLoss="5.05" rerouteNo="0" devices="tripinfo_F_car_V_B0B3.3 emissions_F_car_V_B0B3.3" vType="car" speedFactor="0.88" vaporized="">
        <emissions CO_abs="1591.450187" CO2_abs="131243.687975" HC_abs="10.178399" PMx_abs="1.820222" NOx_abs="49.901681" fuel_abs="41861.044108" electricity_abs="0"/>
    </tripinfo>
    <tripinfo id="F_car_H_D0A0.3" depart="45.00" departLane="D0C0_0" departPos="5.10" departSpeed="0.00" departDelay="0.00" arrival="103.00" arrivalLane="B0A0_0" arrivalPos="200.00" arrivalSpeed="12.10" duration="58.00" routeLength="594.90" waitingTime="1.00" waitingCount="1" stopTime="0.00" timeLoss="11.10" rerouteNo="0" devices="tripinfo_F_car_H_D0A0.3 emissions_F_car_H_D0A0.3" vType="car" speedFactor="0.93" vaporized="">
        <emissions CO_abs="2659.340513" CO2_abs="167185.938667" HC_abs="15.891102" PMx_abs="2.636858" NOx_abs="65.865610" fuel_abs="53325.074880" electricity_abs="0"/>
    </tripinfo>
    <tripinfo id="F_car_H_D0A0.4" depart="60.00" departLane="D0C0_0" departPos="5.10" departSpeed="0.00" departDelay="0.00" arrival="108.00" arrivalLane="B0A0_0" arrivalPos="200.00" arrivalSpeed="13.28" duration="48.00" routeLength="594.90" waitingTime="0.00" waitingCount="0" stopTime="0.00" timeLoss="4.77" rerouteNo="0" devices="tripinfo_F_car_H_D0A0.4 emissions_F_car_H_D0A0.4" vType="car" speedFactor="1.16" vaporized="">
        <emissions CO_abs="1328.911396" CO2_abs="134771.625505" HC_abs="8.871863" PMx_abs="1.813072" NOx_abs="50.228548" fuel_abs="42986.177577" electricity_abs="0"/>
    </tripinfo>
    <tripinfo id="F_car_V_B3B0.4" depart="60.00" departLane="B3B2_0" departPos="5.10" departSpeed="0.00" departDelay="0.00" arrival="108.00" arrivalLane="B1B0_0" arrivalPos="200.00" arrivalSpeed="13.54" duration="48.00" routeLength="594.90" waitingTime="0.00" waitingCount="0" stopTime="0.00" timeLoss="5.03" rerouteNo="0" devices="tripinfo_F_car_V_B3B0.4 emissions_F_car_V_B3B0.4" vType="car" speedFactor="1.01" vaporized="">
        <emissions CO_abs="1583.077006" CO2_abs="141611.085956" HC_abs="10.317774" PMx_abs="2.109353" NOx_abs="54.280058" fuel_abs="45167.555334" electricity_abs="0"/>
    </tripinfo>
    <tripinfo id="F_car_V_B0B3.4" depart="60.00" departLane="B0B1_0" departPos="5.10" departSpeed="0.00" departDelay="0.00" arrival="109.00" arrivalLane="B2B3_0" arrivalPos="200.00" arrivalSpeed="12.90" duration="49.00" routeLength="594.90" waitingTime="0.00" waitingCount="0" stopTime="0.00" timeLoss="5.26" rerouteNo="0" devices="tripinfo_F_car_V_B0B3.4 emissions_F_car_V_B0B3.4" vType="car" speedFactor="1.02" vaporized="">
        <emissions CO_abs="1462.623078" CO2_abs="135584.307665" HC_abs="9.578275" PMx_abs="1.913299" NOx_abs="51.123834" fuel_abs="43245.370909" electricity_abs="0"/>
    </tripinfo>
    <tripinfo id="F_car_H_A0D0.4" depart="60.00" departLane="A0B0_0" departPos="5.10" departSpeed="0.00" departDelay="0.00" arrival="112.00" arrivalLane="C0D0_0" arrivalPos="200.00" arrivalSpeed="12.98" duration="52.00" routeLength="594.90" waitingTime="0.00" waitingCount="0" stopTime="0.00" timeLoss="5.44" rerouteNo="0" devices="tripinfo_F_car_H_A0D0.4 emissions_F_car_H_A0D0.4" vType="car" speedFactor="0.94" vaporized="">
        <emissions CO_abs="1536.304065" CO2_abs="134824.680745" HC_abs="9.885344" PMx_abs="1.847877" NOx_abs="50.736835" fuel_abs="43003.193089" electricity_abs="0"/>
    </tripinfo>
    <tripinfo id="F_car_H_A0D0.5" depart="75.00" departLane="A0B0_0" departPos="5.10" departSpeed="0.00" departDelay="0.00" arrival="125.00" arrivalLane="C0D0_0" arrivalPos="200.00" arrivalSpeed="12.30" duration="50.00" routeLength="594.90" waitingTime="0.00" waitingCount="0" stopTime="0.00" timeLoss="5.21" rerouteNo="0" devices="tripinfo_F_car_H_A0D0.5 emissions_F_car_H_A0D0.5" vType="car" speedFactor="0.97" vaporized="">
        <emissions CO_abs="1466.456307" CO2_abs="130519.650778" HC_abs="9.460021" PMx_abs="1.849151" NOx_abs="49.369100" fuel_abs="41629.995733" electricity_abs="0"/>
    </tripinfo>
    <tripinfo id="F_car_H_D0A0.5" depart="75.00" departLane="D0C0_0" departPos="5.10" departSpeed="0.00" departDelay="0.00" arrival="129.00" arrivalLane="B0A0_0" arrivalPos="200.00" arrivalSpeed="12.17" duration="54.00" routeLength="594.90" waitingTime="0.00" waitingCount="0" stopTime="0.00" timeLoss="5.25" rerouteNo="0" devices="tripinfo_F_car_H_D0A0.5 emissions_F_car_H_D0A0.5" vType="car" speedFactor="0.89" vaporized="">
        <emissions CO_abs="1571.471274" CO2_abs="136126.219183" HC_abs="10.107067" PMx_abs="1.806147" NOx_abs="51.086037" fuel_abs="43418.401977" electricity_abs="0"/>
    </tripinfo>
    <tripinfo id="F_car_H_D0A0.6" depart="90.00" departLane="D0C0_0" departPos="5.10" departSpeed="0.00" departDelay="0.00" arrival="141.00" arrivalLane="B0A0_0" arrivalPos="200.00" arrivalSpeed="12.51" duration="51.00" routeLength="594.90" waitingTime="0.00" waitingCount="0" stopTime="0.00" timeLoss="5.37" rerouteNo="0" devices="tripinfo_F_car_H_D0A0.6 emissions_F_car_H_D0A0.6" vType="car" speedFactor="0.95" vaporized="">
        <emissions CO_abs="1442.402555" CO2_abs="132580.038488" HC_abs="9.500264" PMx_abs="1.815099" NOx_abs="49.866939" fuel_abs="42287.221530" electricity_abs="0"/>
    </tripinfo>
    <tripinfo id="F_car_H_A0D0.6" depart="90.00" departLane="A0B0_0" departPos="5.10" departSpeed="0.00" departDelay="0.00" arrival="142.00" arrivalLane="C0D0_0" arrivalPos="200.00" arrivalSpeed="12.62" duration="52.00" routeLength="594.90" waitingTime="0.00" waitingCount="0" stopTime="0.00" timeLoss="4.44" rerouteNo="0" devices="tripinfo_F_car_H_A0D0.6 emissions_F_car_H_A0D0.6" vType="car" speedFactor="0.92" vaporized="">
        <emissions CO_abs="1474.826551" CO2_abs="136288.807142" HC_abs="9.618818" PMx_abs="1.834631" NOx_abs="50.983436" fuel_abs="43470.182454" electricity_abs="0"/>
    </tripinfo>
    <tripinfo id="F_car_V_B0B3.5" depart="75.00" departLane="B0B1_0" departPos="5.10" departSpeed="0.00" departDelay="0.00" arrival="145.00" arrivalLane="B2B3_0" arrivalPos="200.00" arrivalSpeed="10.74" duration="70.00" routeLength="594.90" waitingTime="5.00" waitingCount="2" stopTime="0.00" timeLoss="17.71" rerouteNo="0" devices="tripinfo_F_car_V_B0B3.5 emissions_F_car_V_B0B3.5" vType="car" speedFactor="0.83" vaporized="">
        <emissions CO_abs="3873.829431" CO2_abs="192016.768852" HC_abs="22.066946" PMx_abs="3.121657" NOx_abs="76.934264" fuel_abs="61245.410674" electricity_abs="0"/>
    </tripinfo>
    <tripinfo id="F_car_V_B3B0.5" depart="75.00" departLane="B3B2_0" departPos="5.10" departSpeed="0.00" departDelay="0.00" arrival="145.00" arrivalLane="B1B0_0" arrivalPos="200.00" arrivalSpeed="11.26" duration="70.00" routeLength="594.90" waitingTime="6.00" waitingCount="2" stopTime="0.00" timeLoss="20.06" rerouteNo="0" devices="tripinfo_F_car_V_B3B0.5 emissions_F_car_V_B3B0.5" vType="car" speedFactor="0.87" vaporized="">
        <emissions CO_abs="3958.195561" CO2_abs="189703.364081" HC_abs="22.427002" PMx_abs="3.240086" NOx_abs="77.024714" fuel_abs="60507.431319" electricity_abs="0"/>
    </tripinfo>
    <tripinfo id="F_car_V_B3B0.6" depart="90.00" departLane="B3B2_0" departPos="5.10" departSpeed="0.00" departDelay="0.00" arrival="146.00" arrivalLane="B1B0_0" arrivalPos="200.00" arrivalSpeed="12.20" duration="56.00" routeLength="594.90" waitingTime="0.00" waitingCount="0" stopTime="0.00" timeLoss="9.87" rerouteNo="0" devices="tripinfo_F_car_V_B3B0.6 emissions_F_car_V_B3B0.6" vType="car" speedFactor="0.93" vaporized="">
        <emissions CO_abs="2258.532421" CO2_abs="160023.347415" HC_abs="13.953194" PMx_abs="2.548849" NOx_abs="63.340691" fuel_abs="51040.298927" electricity_abs="0"/>
    </tripinfo>
    <tripinfo id="F_car_V_B0B3.6" depart="90.00" departLane="B0B1_0" departPos="5.10" departSpeed="0.00" departDelay="0.00" arrival="147.00" arrivalLane="B2B3_0" arrivalPos="200.00" arrivalSpeed="13.35" duration="57.00" routeLength="594.90" waitingTime="0.00" waitingCount="0" stopTime="0.00" timeLoss="13.41" rerouteNo="0" devices="tripinfo_F_car_V_B0B3.6 emissions_F_car_V_B0B3.6" vType="car" speedFactor="1.13" vaporized="">
        <emissions CO_abs="2597.574845" CO2_abs="173419.382685" HC_abs="15.670767" PMx_abs="2.709206" NOx_abs="68.030711" fuel_abs="55313.195533" electricity_abs="0"/>
    </tripinfo>
    <tripinfo id="F_car_H_A0D0.7" depart="105.00" departLane="A0B0_0" departPos="5.10" departSpeed="0.00" departDelay="0.00" arrival="154.00" arrivalLane="C0D0_0" arrivalPos="200.00" arrivalSpeed="13.85" duration="49.00" routeLength="594.90" waitingTime="0.00" waitingCount="0" stopTime="0.00" timeLoss="5.56" rerouteNo="0" devices="tripinfo_F_car_H_A0D0.7 emissions_F_car_H_A0D0.7" vType="car" speedFactor="1.18" vaporized="">
        <emissions CO_abs="1698.902354" CO2_abs="143704.412023" HC_abs="11.001994" PMx_abs="2.213095" NOx_abs="55.793269" fuel_abs="45835.205731" electricity_abs="0"/>
    </tripinfo>
    <tripinfo id="F_car_H_D0A0.7" depart="105.00" departLane="D0C0_0" departPos="5.10" departSpeed="0.00" departDelay="0.00" arrival="154.00" arrivalLane="B0A0_0" arrivalPos="200.00" arrivalSpeed="13.58" duration="49.00" routeLength="594.90" waitingTime="0.00" waitingCount="0" stopTime="0.00" timeLoss="5.39" rerouteNo="0" devices="tripinfo_F_car_H_D0A0.7 emissions_F_car_H_D0A0.7" vType="car" speedFactor="1.15" vaporized="">
        <emissions CO_abs="1504.591601" CO2_abs="137339.580341" HC_abs="9.875928" PMx_abs="1.966040" NOx_abs="52.022262" fuel_abs="43805.215868" electricity_abs="0"/>
    </tripinfo>
    <tripinfo id="F_car_V_B3B0.7" depart="105.00" departLane="B3B2_0" departPos="5.10" departSpeed="0.00" departDelay="0.00" arrival="156.00" arrivalLane="B1B0_0" arrivalPos="200.00" arrivalSpeed="13.05" duration="51.00" routeLength="594.90" waitingTime="0.00" waitingCount="0" stopTime="0.00" timeLoss="8.00" rerouteNo="0" devices="tripinfo_F_car_V_B3B0.7 emissions_F_car_V_B3B0.7" vType="car" speedFactor="1.17" vaporized="">
        <emissions CO_abs="1924.483004" CO2_abs="154375.338565" HC_abs="12.143535" PMx_abs="2.351680" NOx_abs="59.768680" fuel_abs="49238.817658" electricity_abs="0"/>
    </tripinfo>
    <tripinfo id="F_car_V_B0B3.7" depart="105.00" departLane="B0B1_0" departPos="5.10" departSpeed="0.00" departDelay="0.00" arrival="158.00" arrivalLane="B2B3_0" arrivalPos="200.00" arrivalSpeed="13.30" duration="53.00" routeLength="594.90" waitingTime="0.00" waitingCount="0" stopTime="0.00" timeLoss="9.36" rerouteNo="0" devices="tripinfo_F_car_V_B0B3.7 emissions_F_car_V_B0B3.7" vType="car" speedFactor="1.01" vaporized="">
        <emissions CO_abs="2226.150443" CO2_abs="165210.448112" HC_abs="13.800747" PMx_abs="2.652683" NOx_abs="65.105817" fuel_abs="52694.671719" electricity_abs="0"/>
    </tripinfo>
    <tripinfo id="F_car_H_A0D0.8" depart="120.00" departLane="A0B0_0" departPos="5.10" departSpeed="0.00" departDelay="0.00" arrival="168.00" arrivalLane="C0D0_0" arrivalPos="200.00" arrivalSpeed="13.20" duration="48.00" routeLength="594.90" waitingTime="0.00" waitingCount="0" stopTime="0.00" timeLoss="4.81" rerouteNo="0" devices="tripinfo_F_car_H_A0D0.8 emissions_F_car_H_A0D0.8" vType="car" speedFactor="0.99" vaporized="">
        <emissions CO_abs="1314.019857" CO2_abs="136013.624106" HC_abs="8.903615" PMx_abs="1.815708" NOx_abs="50.481172" fuel_abs="43382.338328" electricity_abs="0"/>
    </tripinfo>
    <tripinfo id="F_car_H_D0A0.8" depart="120.00" departLane="D0C0_0" departPos="5.10" departSpeed="0.00" departDelay="0.00" arrival="168.00" arrivalLane="B0A0_0" arrivalPos="200.00" arrivalSpeed="13.75" duration="48.00" routeLength="594.90" waitingTime="0.00" waitingCount="0" stopTime="0.00" timeLoss="4.42" rerouteNo="0" devices="tripinfo_F_car_H_D0A0.8 emissions_F_car_H_D0A0.8" vType="car" speedFactor="1.02" vaporized="">
        <emissions CO_abs="1496.076763" CO2_abs="140241.422196" HC_abs="9.821674" PMx_abs="2.036782" NOx_abs="53.073768" fuel_abs="44730.719150" electricity_abs="0"/>
    </tripinfo>
    <tripinfo id="F_car_V_B0B3.8" depart="120.00" departLane="B0B1_0" departPos="5.10" departSpeed="0.00" departDelay="0.00" arrival="169.00" arrivalLane="B2B3_0" arrivalPos="200.00" arrivalSpeed="13.39" duration="49.00" routeLength="594.90" waitingTime="0.00" waitingCount="0" stopTime="0.00" timeLoss="4.65" rerouteNo="0" devices="tripinfo_F_car_V_B0B3.8 emissions_F_car_V_B0B3.8" vType="car" speedFactor="0.97" vaporized="">
        <emissions CO_abs="1325.492127" CO2_abs="135664.767030" HC_abs="8.885148" PMx_abs="1.770296" NOx_abs="50.155745" fuel_abs="43271.113960" electricity_abs="0"/>
    </tripinfo>
    <tripinfo id="F_car_V_B3B0.8" depart="120.00" departLane="B3B2_0" departPos="5.10" departSpeed="0.00" departDelay="0.00" arrival="169.00" arrivalLane="B1B0_0" arrivalPos="200.00" arrivalSpeed="13.41" duration="49.00" routeLength="594.90" waitingTime="0.00" waitingCount="0" stopTime="0.00" timeLoss="5.37" rerouteNo="0" devices="tripinfo_F_car_V_B3B0.8 emissions_F_car_V_B3B0.8" vType="car" speedFactor="1.18" vaporized="">
        <emissions CO_abs="1472.349043" CO2_abs="133663.894955" HC_abs="9.630417" PMx_abs="1.921040" NOx_abs="50.653478" fuel_abs="42632.832527" electricity_abs="0"/>
    </tripinfo>
    <tripinfo id="F_bus_V_C0C3.1" depart="120.00" departLane="C0C1_0" departPos="12.10" departSpeed="0.00" departDelay="0.00" arrival="179.00" arrivalLane="C2C3_0" arrivalPos="200.00" arrivalSpeed="10.85" duration="59.00" routeLength="587.90" waitingTime="0.00" waitingCount="0" stopTime="0.00" timeLoss="5.60" rerouteNo="0" devices="tripinfo_F_bus_V_C0C3.1 emissions_F_bus_V_C0C3.1" vType="bus" speedFactor="1.10" vaporized="">
        <emissions CO_abs="1668.089574" CO2_abs="132763.613342" HC_abs="10.555687" PMx_abs="1.424264" NOx_abs="47.963979" fuel_abs="42346.331795" electricity_abs="0"/>
    </tripinfo>
    <tripinfo id="F_bus_V_C3C0.1" depart="120.00" departLane="C3C2_0" departPos="12.10" departSpeed="0.00" departDelay="0.00" arrival="180.00" arrivalLane="C1C0_0" arrivalPos="200.00" arrivalSpeed="10.86" duration="60.00" routeLength="587.90" waitingTime="0.00" waitingCount="0" stopTime="0.00" timeLoss="6.12" rerouteNo="0" devices="tripinfo_F_bus_V_C3C0.1 emissions_F_bus_V_C3C0.1" vType="bus" speedFactor="0.90" vaporized="">
        <emissions CO_abs="1774.535857" CO2_abs="136362.522357" HC_abs="11.124067" PMx_abs="1.498155" NOx_abs="49.477458" fuel_abs="43494.244922" electricity_abs="0"/>
    </tripinfo>
    <tripinfo id="F_car_V_B3B0.9" depart="135.00" departLane="B3B2_0" departPos="5.10" departSpeed="0.00" departDelay="0.00" arrival="183.00" arrivalLane="B1B0_0" arrivalPos="200.00" arrivalSpeed="13.25" duration="48.00" routeLength="594.90" waitingTime="0.00" waitingCount="0" stopTime="0.00" timeLoss="4.89" rerouteNo="0" devices="tripinfo_F_car_V_B3B0.9 emissions_F_car_V_B3B0.9" vType="car" speedFactor="1.04" vaporized="">
        <emissions CO_abs="1521.060330" CO2_abs="135635.446461" HC_abs="9.808210" PMx_abs="1.999371" NOx_abs="51.801808" fuel_abs="43261.606970" electricity_abs="0"/>
    </tripinfo>
    <tripinfo id="F_car_H_A0D0.9" depart="135.00" departLane="A0B0_0" departPos="5.10" departSpeed="0.00" departDelay="0.00" arrival="186.00" arrivalLane="C0D0_0" arrivalPos="200.00" arrivalSpeed="12.98" duration="51.00" routeLength="594.90" waitingTime="0.00" waitingCount="0" stopTime="0.00" timeLoss="7.80" rerouteNo="0" devices="tripinfo_F_car_H_A0D0.9 emissions_F_car_H_A0D0.9" vType="car" speedFactor="1.03" vaporized="">
        <emissions CO_abs="2024.126531" CO2_abs="156553.666161" HC_abs="12.624983" PMx_abs="2.473314" NOx_abs="61.137232" fuel_abs="49933.552217" electricity_abs="0"/>
    </tripinfo>
    <tripinfo id="F_car_H_D0A0.9" depart="135.00" departLane="D0C0_0" departPos="5.10" departSpeed="0.00" departDelay="0.00" arrival="186.00" arrivalLane="B0A0_0" arrivalPos="200.00" arrivalSpeed="12.95" duration="51.00" routeLength="594.90" waitingTime="0.00" waitingCount="0" stopTime="0.00" timeLoss="5.68" rerouteNo="0" devices="tripinfo_F_car_H_D0A0.9 emissions_F_car_H_D0A0.9" vType="car" speedFactor="0.96" vaporized="">
        <emissions CO_abs="1828.524196" CO2_abs="146589.934956" HC_abs="11.472704" PMx_abs="2.266094" NOx_abs="57.107063" fuel_abs="46755.572260" electricity_abs="0"/>
    </tripinfo>
    <tripinfo id="F_car_V_B0B3.9" depart="135.00" departLane="B0B1_0" departPos="5.10" departSpeed="0.00" departDelay="0.00" arrival="193.00" arrivalLane="B2B3_0" arrivalPos="200.00" arrivalSpeed="13.14" duration="58.00" routeLength="594.90" waitingTime="3.00" waitingCount="1" stopTime="0.00" timeLoss="14.27" rerouteNo="0" devices="tripinfo_F_car_V_B0B3.9 emissions_F_car_V_B0B3.9" vType="car" speedFactor="1.09" vaporized="">
        <emissions CO_abs="2963.742789" CO2_abs="176460.283875" HC_abs="17.309577" PMx_abs="2.873231" NOx_abs="69.487626" fuel_abs="56283.198276" electricity_abs="0"/>
    </tripinfo>
    <tripinfo id="F_car_H_A0D0.10" depart="150.00" departLane="A0B0_0" departPos="5.10" departSpeed="0.00" departDelay="0.00" arrival="201.00" arrivalLane="C0D0_0" arrivalPos="200.00" arrivalSpeed="13.51" duration="51.00" routeLength="594.90" waitingTime="0.00" waitingCount="0" stopTime="0.00" timeLoss="7.79" rerouteNo="0" devices="tripinfo_F_car_H_A0D0.10 emissions_F_car_H_A0D0.10" vType="car" speedFactor="1.04" vaporized="">
        <emissions CO_abs="1989.789256" CO2_abs="159073.861077" HC_abs="12.511070" PMx_abs="2.473977" NOx_abs="61.835406" fuel_abs="50737.382457" electricity_abs="0"/>
    </tripinfo>
    <tripinfo id="F_car_H_D0A0.10" depart="150.00" departLane="D0C0_0" departPos="5.10" departSpeed="0.00" departDelay="0.00" arrival="202.00" arrivalLane="B0A0_0" arrivalPos="200.00" arrivalSpeed="13.27" duration="52.00" routeLength="594.90" waitingTime="0.00" waitingCount="0" stopTime="0.00" timeLoss="8.83" rerouteNo="0" devices="tripinfo_F_car_H_D0A0.10 emissions_F_car_H_D0A0.10" vType="car" speedFactor="1.09" vaporized="">
        <emissions CO_abs="2127.424270" CO2_abs="160593.711624" HC_abs="13.259139" PMx_abs="2.558537" NOx_abs="63.161851" fuel_abs="51222.135792" electricity_abs="0"/>
    </tripinfo>
    <tripinfo id="F_car_V_B0B3.10" depart="154.00" departLane="B0B1_0" departPos="5.10" departSpeed="0.00" departDelay="4.00" arrival="207.00" arrivalLane="B2B3_0" arrivalPos="200.00" arrivalSpeed="13.74" duration="53.00" routeLength="594.90" waitingTime="0.00" waitingCount="0" stopTime="0.00" timeLoss="9.88" rerouteNo="0" devices="tripinfo_F_car_V_B0B3.10 emissions_F_car_V_B0B3.10" vType="car" speedFactor="1.00" vaporized="">