<?xml version="1.0" encoding="UTF-8"?>

<!-- generated on 2025-06-09 12:27:22 by Eclipse SUMO GUI Version 1.22.0
<sumoConfiguration xmlns:xsi="http://www.w3.org/2001/XMLSchema-instance" xsi:noNamespaceSchemaLocation="http://sumo.dlr.de/xsd/sumoConfiguration.xsd">

    <input>
        <net-file value="grid.net.xml"/>
        <route-files value="traffic.rou.xml"/>
        <additional-files value="detectores.add.xml"/>
    </input>

    <output>
        <emission-output value="emission.xml"/>
        <tripinfo-output value="tripinfo.xml"/>
    </output>

    <time>
        <begin value="0"/>
        <end value="3600"/>
        <step-length value="1"/>
    </time>

    <processing>
        <ignore-route-errors value="true"/>
        <time-to-teleport value="300"/>
        <waiting-time-memory value="1000"/>
    </processing>

    <report>
        <verbose value="true"/>
        <log value="sumo.log"/>
        <error-log value="sumo_errors.log"/>
        <duration-log.statistics value="true"/>
        <no-step-log value="true"/>
    </report>

    <traci_server>
        <remote-port value="60066"/>
    </traci_server>

    <random_number>
        <random value="true"/>
        <seed value="5905"/>
    </random_number>

    <gui_only>
        <start value="true"/>
    </gui_only>

</sumoConfiguration>
-->

<tripinfos xmlns:xsi="http://www.w3.org/2001/XMLSchema-instance" xsi:noNamespaceSchemaLocation="http://sumo.dlr.de/xsd/tripinfo_file.xsd">
    <tripinfo id="F_moto_H_A2D2.2" depart="1.00" departLane="A2B2_0" departPos="199.17" departSpeed="0.00" departDelay="0.60" arrival="33.00" arrivalLane="C2D2_0" arrivalPos="200.00" arrivalSpeed="14.49" duration="32.00" routeLength="400.83" waitingTime="0.00" waitingCount="0" stopTime="0.00" timeLoss="4.17" rerouteNo="0" devices="tripinfo_F_moto_H_A2D2.2 emissions_F_moto_H_A2D2.2" vType="motorcycle" speedFactor="1.06" vaporized="">
        <emissions CO_abs="1564.596974" CO2_abs="117572.276239" HC_abs="9.803757" PMx_abs="2.066073" NOx_abs="47.463192" fuel_abs="37500.040447" electricity_abs="0"/>
    </tripinfo>
    <tripinfo id="F_cars_H_A0D0.1" depart="1.00" departLane="A0B0_0" departPos="199.18" departSpeed="0.00" departDelay="0.90" arrival="42.00" arrivalLane="C0D0_0" arrivalPos="200.00" arrivalSpeed="9.94" duration="41.00" routeLength="400.82" waitingTime="0.00" waitingCount="0" stopTime="0.00" timeLoss="4.28" rerouteNo="0" devices="tripinfo_F_cars_H_A0D0.1 emissions_F_cars_H_A0D0.1" vType="car" speedFactor="0.79" vaporized="">
        <emissions CO_abs="1441.552813" CO2_abs="98599.244264" HC_abs="8.812588" PMx_abs="1.373064" NOx_abs="37.992071" fuel_abs="31448.996097" electricity_abs="0"/>
    </tripinfo>
    <tripinfo id="F_bus_H_D3A3.1" depart="1.00" departLane="D3C3_0" departPos="62.33" departSpeed="0.00" departDelay="0.50" arrival="85.00" arrivalLane="B3A3_0" arrivalPos="200.00" arrivalSpeed="10.65" duration="84.00" routeLength="537.67" waitingTime="21.00" waitingCount="1" stopTime="0.00" timeLoss="35.53" rerouteNo="0" devices="tripinfo_F_bus_H_D3A3.1 emissions_F_bus_H_D3A3.1" vType="bus" speedFactor="0.96" vaporized="">
        <emissions CO_abs="6326.989091" CO2_abs="207047.305897" HC_abs="33.548519" PMx_abs="3.515155" NOx_abs="83.846296" fuel_abs="66040.738222" electricity_abs="0"/>
    </tripinfo>
    <tripinfo id="F_bus_H_D3A3.0" depart="0.00" departLane="D3C3_0" departPos="34.57" departSpeed="0.00" departDelay="0.00" arrival="89.00" arrivalLane="B3A3_0" arrivalPos="200.00" arrivalSpeed="10.37" duration="89.00" routeLength="565.43" waitingTime="20.00" waitingCount="1" stopTime="0.00" timeLoss="37.24" rerouteNo="0" devices="tripinfo_F_bus_H_D3A3.0 emissions_F_bus_H_D3A3.0" vType="bus" speedFactor="1.04" vaporized="">
        <emissions CO_abs="6452.942419" CO2_abs="213719.818070" HC_abs="34.267327" PMx_abs="3.573049" NOx_abs="86.239825" fuel_abs="68169.038627" electricity_abs="0"/>
    </tripinfo>
    <tripinfo id="F_cars_V_B0B3.0" depart="0.00" departLane="B0B1_0" departPos="190.17" departSpeed="0.00" departDelay="0.00" arrival="103.00" arrivalLane="B2B3_0" arrivalPos="200.00" arrivalSpeed="12.98" duration="103.00" routeLength="409.83" waitingTime="63.00" waitingCount="1" stopTime="0.00" timeLoss="71.93" rerouteNo="0" devices="tripinfo_F_cars_V_B0B3.0 emissions_F_cars_V_B0B3.0" vType="car" speedFactor="0.97" vaporized="">
        <emissions CO_abs="12107.864277" CO2_abs="278001.809748" HC_abs="61.571324" PMx_abs="5.915576" NOx_abs="120.014206" fuel_abs="88673.641837" electricity_abs="0"/>
    </tripinfo>
    <tripinfo id="F_cars_V_C0C3.1" depart="1.00" departLane="C0C1_0" departPos="195.57" departSpeed="0.00" departDelay="0.90" arrival="104.00" arrivalLane="C2C3_0" arrivalPos="200.00" arrivalSpeed="12.75" duration="103.00" routeLength="404.43" waitingTime="62.00" waitingCount="1" stopTime="0.00" timeLoss="71.44" rerouteNo="0" devices="tripinfo_F_cars_V_C0C3.1 emissions_F_cars_V_C0C3.1" vType="car" speedFactor="0.93" vaporized="">
        <emissions CO_abs="12178.686650" CO2_abs="274239.179962" HC_abs="61.729750" PMx_abs="5.829264" NOx_abs="118.307394" fuel_abs="87473.640007" electricity_abs="0"/>
    </tripinfo>
    <tripinfo id="F_cars_V_B0B3.2" depart="1.00" departLane="B0B1_0" departPos="183.53" departSpeed="0.00" departDelay="0.80" arrival="105.00" arrivalLane="B2B3_0" arrivalPos="200.00" arrivalSpeed="13.05" duration="104.00" routeLength="416.47" waitingTime="62.00" waitingCount="1" stopTime="0.00" timeLoss="73.15" rerouteNo="0" devices="tripinfo_F_cars_V_B0B3.2 emissions_F_cars_V_B0B3.2" vType="car" speedFactor="1.07" vaporized="">
        <emissions CO_abs="12502.717329" CO2_abs="291331.051494" HC_abs="63.587309" PMx_abs="6.239762" NOx_abs="125.919093" fuel_abs="92925.074928" electricity_abs="0"/>
    </tripinfo>
    <tripinfo id="F_cars_V_C0C3.0" depart="0.00" departLane="C0C1_0" departPos="173.88" departSpeed="0.00" departDelay="0.00" arrival="106.00" arrivalLane="C2C3_0" arrivalPos="200.00" arrivalSpeed="12.62" duration="106.00" routeLength="426.12" waitingTime="61.00" waitingCount="1" stopTime="0.00" timeLoss="74.75" rerouteNo="0" devices="tripinfo_F_cars_V_C0C3.0 emissions_F_cars_V_C0C3.0" vType="car" speedFactor="1.09" vaporized="">
        <emissions CO_abs="12277.559397" CO2_abs="287346.406584" HC_abs="62.502263" PMx_abs="5.989059" NOx_abs="123.102466" fuel_abs="91654.270918" electricity_abs="0"/>
    </tripinfo>
    <tripinfo id="F_cars_V_B0B3.1" depart="1.00" departLane="B0B1_0" departPos="153.30" departSpeed="0.00" departDelay="0.90" arrival="106.00" arrivalLane="B2B3_0" arrivalPos="200.00" arrivalSpeed="12.62" duration="105.00" routeLength="446.70" waitingTime="62.00" waitingCount="1" stopTime="0.00" timeLoss="72.74" rerouteNo="0" devices="tripinfo_F_cars_V_B0B3.1 emissions_F_cars_V_B0B3.1" vType="car" speedFactor="1.13" vaporized="">
        <emissions CO_abs="12385.876058" CO2_abs="294751.150741" HC_abs="63.207441" PMx_abs="6.361352" NOx_abs="128.073131" fuel_abs="94015.731739" electricity_abs="0"/>
    </tripinfo>
    <tripinfo id="F_cars_V_C0C3.2" depart="1.00" departLane="C0C1_0" departPos="157.37" departSpeed="0.00" departDelay="0.80" arrival="108.00" arrivalLane="C2C3_0" arrivalPos="200.00" arrivalSpeed="13.35" duration="107.00" routeLength="442.63" waitingTime="61.00" waitingCount="1" stopTime="0.00" timeLoss="74.21" rerouteNo="0" devices="tripinfo_F_cars_V_C0C3.2 emissions_F_cars_V_C0C3.2" vType="car" speedFactor="1.02" vaporized="">
        <emissions CO_abs="12502.917011" CO2_abs="299960.542159" HC_abs="63.870677" PMx_abs="6.364435" NOx_abs="129.529749" fuel_abs="95677.421083" electricity_abs="0"/>
    </tripinfo>
    <tripinfo id="F_cars_V_C0C3.6" depart="2.00" departLane="C0C1_0" departPos="141.08" departSpeed="0.00" departDelay="1.40" arrival="110.00" arrivalLane="C2C3_0" arrivalPos="200.00" arrivalSpeed="12.03" duration="108.00" routeLength="458.92" waitingTime="59.00" waitingCount="1" stopTime="0.00" timeLoss="72.53" rerouteNo="0" devices="tripinfo_F_cars_V_C0C3.6 emissions_F_cars_V_C0C3.6" vType="car" speedFactor="0.95" vaporized="">
        <emissions CO_abs="12536.801411" CO2_abs="302590.553404" HC_abs="64.086072" PMx_abs="6.507248" NOx_abs="131.295029" fuel_abs="96516.162973" electricity_abs="0"/>
    </tripinfo>
    <tripinfo id="F_cars_H_A1D1.0" depart="0.00" departLane="A1B1_0" departPos="195.64" departSpeed="0.00" departDelay="0.00" arrival="111.00" arrivalLane="C1D1_0" arrivalPos="200.00" arrivalSpeed="11.27" duration="111.00" routeLength="404.36" waitingTime="66.00" waitingCount="1" stopTime="0.00" timeLoss="77.80" rerouteNo="0" devices="tripinfo_F_cars_H_A1D1.0 emissions_F_cars_H_A1D1.0" vType="car" speedFactor="0.88" vaporized="">
        <emissions CO_abs="13250.949561" CO2_abs="302271.273758" HC_abs="67.397053" PMx_abs="6.514889" NOx_abs="131.602776" fuel_abs="96414.749631" electricity_abs="0"/>
    </tripinfo>
    <tripinfo id="F_cars_V_B0B3.4" depart="1.00" departLane="B0B1_0" departPos="102.95" departSpeed="0.00" departDelay="0.60" arrival="111.00" arrivalLane="B2B3_0" arrivalPos="200.00" arrivalSpeed="11.34" duration="110.00" routeLength="497.05" waitingTime="58.00" waitingCount="1" stopTime="0.00" timeLoss="70.27" rerouteNo="0" devices="tripinfo_F_cars_V_B0B3.4 emissions_F_cars_V_B0B3.4" vType="car" speedFactor="0.90" vaporized="">
        <emissions CO_abs="11784.888719" CO2_abs="290554.996828" HC_abs="60.312110" PMx_abs="6.001676" NOx_abs="124.449255" fuel_abs="92677.348467" electricity_abs="0"/>
    </tripinfo>
    <tripinfo id="F_cars_V_C0C3.4" depart="2.00" departLane="C0C1_0" departPos="123.23" departSpeed="0.00" departDelay="1.60" arrival="111.00" arrivalLane="C2C3_0" arrivalPos="200.00" arrivalSpeed="12.46" duration="109.00" routeLength="476.77" waitingTime="59.00" waitingCount="1" stopTime="0.00" timeLoss="73.69" rerouteNo="0" devices="tripinfo_F_cars_V_C0C3.4 emissions_F_cars_V_C0C3.4" vType="car" speedFactor="0.97" vaporized="">
        <emissions CO_abs="12284.826602" CO2_abs="299074.846079" HC_abs="62.792291" PMx_abs="6.325506" NOx_abs="128.973989" fuel_abs="95394.823940" electricity_abs="0"/>
    </tripinfo>
    <tripinfo id="F_cars_H_A1D1.5" depart="2.00" departLane="A1B1_0" departPos="170.19" departSpeed="0.00" departDelay="1.50" arrival="113.00" arrivalLane="C1D1_0" arrivalPos="200.00" arrivalSpeed="12.94" duration="111.00" routeLength="429.81" waitingTime="65.00" waitingCount="1" stopTime="0.00" timeLoss="77.81" rerouteNo="0" devices="tripinfo_F_cars_H_A1D1.5 emissions_F_cars_H_A1D1.5" vType="car" speedFactor="0.95" vaporized="">
        <emissions CO_abs="13294.797384" CO2_abs="313906.816788" HC_abs="67.788873" PMx_abs="6.737279" NOx_abs="136.237095" fuel_abs="100125.858172" electricity_abs="0"/>
    </tripinfo>
    <tripinfo id="F_cars_V_B0B3.8" depart="2.00" departLane="B0B1_0" departPos="97.73" departSpeed="0.00" departDelay="1.20" arrival="113.00" arrivalLane="B2B3_0" arrivalPos="200.00" arrivalSpeed="11.96" duration="111.00" routeLength="502.27" waitingTime="57.00" waitingCount="1" stopTime="0.00" timeLoss="72.10" rerouteNo="0" devices="tripinfo_F_cars_V_B0B3.8 emissions_F_cars_V_B0B3.8" vType="car" speedFactor="0.94" vaporized="">
        <emissions CO_abs="12514.423594" CO2_abs="310325.287418" HC_abs="64.187135" PMx_abs="6.608374" NOx_abs="134.449550" fuel_abs="98983.123804" electricity_abs="0"/>
    </tripinfo>
    <tripinfo id="F_cars_H_A1D1.8" depart="2.00" departLane="A1B1_0" departPos="154.36" departSpeed="0.00" departDelay="1.20" arrival="115.00" arrivalLane="C1D1_0" arrivalPos="200.00" arrivalSpeed="13.78" duration="113.00" routeLength="445.64" waitingTime="64.00" waitingCount="1" stopTime="0.00" timeLoss="80.17" rerouteNo="0" devices="tripinfo_F_cars_H_A1D1.8 emissions_F_cars_H_A1D1.8" vType="car" speedFactor="1.15" vaporized="">
        <emissions CO_abs="13643.370483" CO2_abs="328381.985646" HC_abs="69.739665" PMx_abs="7.133928" NOx_abs="143.161056" fuel_abs="104742.687564" electricity_abs="0"/>
    </tripinfo>
    <tripinfo id="F_moto_LoopInner.4" depart="1.00" departLane="B1C1_0" departPos="188.66" departSpeed="0.00" departDelay="0.20" arrival="115.00" arrivalLane="B2B1_0" arrivalPos="200.00" arrivalSpeed="15.93" duration="114.00" routeLength="611.34" waitingTime="61.00" waitingCount="2" stopTime="0.00" timeLoss="77.05" rerouteNo="0" devices="tripinfo_F_moto_LoopInner.4 emissions_F_moto_LoopInner.4" vType="motorcycle" speedFactor="1.23" vaporized="">
        <emissions CO_abs="14082.722406" CO2_abs="394636.926175" HC_abs="73.215534" PMx_abs="8.543934" NOx_abs="170.771520" fuel_abs="125874.329320" electricity_abs="0"/>
    </tripinfo>
    <tripinfo id="F_cars_H_A1D1.1" depart="1.00" departLane="A1B1_0" departPos="141.31" departSpeed="0.00" departDelay="0.90" arrival="116.00" arrivalLane="C1D1_0" arrivalPos="200.00" arrivalSpeed="12.99" duration="115.00" routeLength="458.69" waitingTime="64.00" waitingCount="1" stopTime="0.00" timeLoss="81.10" rerouteNo="0" devices="tripinfo_F_cars_H_A1D1.1 emissions_F_cars_H_A1D1.1" vType="car" speedFactor="0.98" vaporized="">
        <emissions CO_abs="13628.291599" CO2_abs="328080.315994" HC_abs="69.673640" PMx_abs="7.081544" NOx_abs="142.709579" fuel_abs="104646.509401" electricity_abs="0"/>
    </tripinfo>
    <tripinfo id="F_moto_H_A2D2.0" depart="0.00" departLane="A2B2_0" departPos="83.62" departSpeed="0.00" departDelay="0.00" arrival="117.00" arrivalLane="C2D2_0" arrivalPos="200.00" arrivalSpeed="13.47" duration="117.00" routeLength="516.38" waitingTime="71.00" waitingCount="1" stopTime="0.00" timeLoss="79.57" rerouteNo="0" devices="tripinfo_F_moto_H_A2D2.0 emissions_F_moto_H_A2D2.0" vType="motorcycle" speedFactor="1.00" vaporized="">
        <emissions CO_abs="13700.837055" CO2_abs="335985.946578" HC_abs="69.905661" PMx_abs="7.001920" NOx_abs="143.625715" fuel_abs="107168.288221" electricity_abs="0"/>
    </tripinfo>
    <tripinfo id="F_cars_H_A1D1.7" depart="2.00" departLane="A1B1_0" departPos="77.99" departSpeed="0.00" departDelay="1.30" arrival="118.00" arrivalLane="C1D1_0" arrivalPos="200.00" arrivalSpeed="12.25" duration="116.00" routeLength="522.01" waitingTime="62.00" waitingCount="1" stopTime="0.00" timeLoss="75.97" rerouteNo="0" devices="tripinfo_F_cars_H_A1D1.7 emissions_F_cars_H_A1D1.7" vType="car" speedFactor="0.94" vaporized="">
        <emissions CO_abs="13020.338075" CO2_abs="323050.246554" HC_abs="66.658618" PMx_abs="6.836440" NOx_abs="139.427688" fuel_abs="103041.988950" electricity_abs="0"/>
    </tripinfo>
    <tripinfo id="F_moto_H_A2D2.1" depart="1.00" departLane="A2B2_0" departPos="71.29" departSpeed="0.00" departDelay="0.80" arrival="119.00" arrivalLane="C2D2_0" arrivalPos="200.00" arrivalSpeed="13.33" duration="118.00" routeLength="528.71" waitingTime="67.00" waitingCount="1" stopTime="0.00" timeLoss="79.19" rerouteNo="0" devices="tripinfo_F_moto_H_A2D2.1 emissions_F_moto_H_A2D2.1" vType="motorcycle" speedFactor="0.98" vaporized="">
        <emissions CO_abs="13434.554779" CO2_abs="329094.916377" HC_abs="68.629949" PMx_abs="6.898963" NOx_abs="141.109200" fuel_abs="104970.251833" electricity_abs="0"/>
    </tripinfo>
    <tripinfo id="F_moto_LoopInner.1" depart="1.00" departLane="B1C1_0" departPos="148.11" departSpeed="0.00" departDelay="0.80" arrival="119.00" arrivalLane="B2B1_0" arrivalPos="200.00" arrivalSpeed="13.09" duration="118.00" routeLength="651.89" waitingTime="54.00" waitingCount="2" stopTime="0.00" timeLoss="70.91" rerouteNo="0" devices="tripinfo_F_moto_LoopInner.1 emissions_F_moto_LoopInner.1" vType="motorcycle" speedFactor="1.00" vaporized="">
        <emissions CO_abs="12691.476448" CO2_abs="363971.531417" HC_abs="66.080741" PMx_abs="7.465475" NOx_abs="155.374527" fuel_abs="116093.497302" electricity_abs="0"/>
    </tripinfo>
    <tripinfo id="F_cars_H_A1D1.2" depart="1.00" departLane="A1B1_0" departPos="51.53" departSpeed="0.00" departDelay="0.80" arrival="120.00" arrivalLane="C1D1_0" arrivalPos="200.00" arrivalSpeed="13.13" duration="119.00" routeLength="548.47" waitingTime="62.00" waitingCount="1" stopTime="0.00" timeLoss="78.62" rerouteNo="0" devices="tripinfo_F_cars_H_A1D1.2 emissions_F_cars_H_A1D1.2" vType="car" speedFactor="0.99" vaporized="">
        <emissions CO_abs="13328.945302" CO2_abs="338413.985405" HC_abs="68.587013" PMx_abs="7.138873" NOx_abs="145.946263" fuel_abs="107942.346157" electricity_abs="0"/>
    </tripinfo>
    <tripinfo id="F_moto_H_A2D2.4" depart="1.00" departLane="A2B2_0" departPos="19.18" departSpeed="0.00" departDelay="0.20" arrival="121.00" arrivalLane="C2D2_0" arrivalPos="200.00" arrivalSpeed="14.13" duration="120.00" routeLength="580.82" waitingTime="67.00" waitingCount="1" stopTime="0.00" timeLoss="81.52" rerouteNo="0" devices="tripinfo_F_moto_H_A2D2.4 emissions_F_moto_H_A2D2.4" vType="motorcycle" speedFactor="1.10" vaporized="">
        <emissions CO_abs="14059.121549" CO2_abs="357264.088536" HC_abs="72.226525" PMx_abs="7.698755" NOx_abs="154.838752" fuel_abs="113954.672347" electricity_abs="0"/>
    </tripinfo>
    <tripinfo id="F_moto_LoopInner.3" depart="1.00" departLane="B1C1_0" departPos="72.19" departSpeed="0.00" departDelay="0.40" arrival="121.00" arrivalLane="B2B1_0" arrivalPos="200.00" arrivalSpeed="15.72" duration="120.00" routeLength="727.81" waitingTime="51.00" waitingCount="1" stopTime="0.00" timeLoss="73.18" rerouteNo="0" devices="tripinfo_F_moto_LoopInner.3 emissions_F_moto_LoopInner.3" vType="motorcycle" speedFactor="1.14" vaporized="">
        <emissions CO_abs="12929.783550" CO2_abs="404265.351586" HC_abs="68.219745" PMx_abs="8.355160" NOx_abs="172.806583" fuel_abs="128944.949984" electricity_abs="0"/>
    </tripinfo>
    <tripinfo id="F_cars_H_A1D1.4" depart="2.00" departLane="A1B1_0" departPos="43.14" departSpeed="0.00" departDelay="1.60" arrival="122.00" arrivalLane="C1D1_0" arrivalPos="200.00" arrivalSpeed="12.79" duration="120.00" routeLength="556.86" waitingTime="61.00" waitingCount="1" stopTime="0.00" timeLoss="79.20" rerouteNo="0" devices="tripinfo_F_cars_H_A1D1.4 emissions_F_cars_H_A1D1.4" vType="car" speedFactor="1.02" vaporized="">
        <emissions CO_abs="13444.663953" CO2_abs="346251.017357" HC_abs="69.221746" PMx_abs="7.290873" NOx_abs="149.252085" fuel_abs="110441.968443" electricity_abs="0"/>
    </tripinfo>
    <tripinfo id="F_moto_H_A2D2.3" depart="1.00" departLane="A2B2_0" departPos="11.01" departSpeed="0.00" departDelay="0.40" arrival="123.00" arrivalLane="C2D2_0" arrivalPos="200.00" arrivalSpeed="14.24" duration="122.00" routeLength="588.99" waitingTime="65.00" waitingCount="1" stopTime="0.00" timeLoss="81.58" rerouteNo="0" devices="tripinfo_F_moto_H_A2D2.3 emissions_F_moto_H_A2D2.3" vType="motorcycle" speedFactor="1.07" vaporized="">
        <emissions CO_abs="13890.834707" CO2_abs="360466.638592" HC_abs="71.517481" PMx_abs="7.647589" NOx_abs="155.325105" fuel_abs="114976.136438" electricity_abs="0"/>
    </tripinfo>
    <tripinfo id="F_moto_LoopInner.0" depart="0.00" departLane="B1C1_0" departPos="39.16" departSpeed="0.00" departDelay="0.00" arrival="124.00" arrivalLane="B2B1_0" arrivalPos="200.00" arrivalSpeed="12.61" duration="124.00" routeLength="760.84" waitingTime="48.00" waitingCount="1" stopTime="0.00" timeLoss="64.95" rerouteNo="0" devices="tripinfo_F_moto_LoopInner.0 emissions_F_moto_LoopInner.0" vType="motorcycle" speedFactor="0.94" vaporized="">
        <emissions CO_abs="11632.873394" CO2_abs="355628.283686" HC_abs="61.247817" PMx_abs="7.161062" NOx_abs="151.228054" fuel_abs="113431.985218" electricity_abs="0"/>
    </tripinfo>
    <tripinfo id="F_cars_H_A1D1.3" depart="2.00" departLane="A1B1_0" departPos="13.87" departSpeed="0.00" departDelay="1.70" arrival="124.00" arrivalLane="C1D1_0" arrivalPos="200.00" arrivalSpeed="13.18" duration="122.00" routeLength="586.13" waitingTime="68.00" waitingCount="1" stopTime="0.00" timeLoss="77.27" rerouteNo="0" devices="tripinfo_F_cars_H_A1D1.3 emissions_F_cars_H_A1D1.3" vType="car" speedFactor="0.95" vaporized="">
        <emissions CO_abs="13520.608007" CO2_abs="347179.609457" HC_abs="69.479080" PMx_abs="7.065756" NOx_abs="147.519055" fuel_abs="110738.491890" electricity_abs="0"/>
    </tripinfo>
    <tripinfo id="F_cars_H_A1D1.6" depart="2.00" departLane="A1B1_0" departPos="0.84" departSpeed="0.00" departDelay="1.40" arrival="126.00" arrivalLane="C1D1_0" arrivalPos="200.00" arrivalSpeed="13.45" duration="124.00" routeLength="599.16" waitingTime="66.00" waitingCount="1" stopTime="0.00" timeLoss="80.17" rerouteNo="0" devices="tripinfo_F_cars_H_A1D1.6 emissions_F_cars_H_A1D1.6" vType="car" speedFactor="1.03" vaporized="">
        <emissions CO_abs="13541.359404" CO2_abs="342746.064699" HC_abs="69.584611" PMx_abs="7.214925" NOx_abs="147.639406" fuel_abs="109324.170348" electricity_abs="0"/>
    </tripinfo>
    <tripinfo id="F_bus_V_A0A3.1" depart="2.00" departLane="A0A1_0" departPos="146.92" departSpeed="0.00" departDelay="1.50" arrival="134.00" arrivalLane="A2A3_0" arrivalPos="200.00" arrivalSpeed="10.71" duration="132.00" routeLength="453.08" waitingTime="80.00" waitingCount="1" stopTime="0.00" timeLoss="90.91" rerouteNo="0" devices="tripinfo_F_bus_V_A0A3.1 emissions_F_bus_V_A0A3.1" vType="bus" speedFactor="0.99" vaporized="">
        <emissions CO_abs="15443.561436" CO2_abs="335870.782098" HC_abs="78.099777" PMx_abs="6.993367" NOx_abs="144.513865" fuel_abs="107132.660378" electricity_abs="0"/>
    </tripinfo>
    <tripinfo id="F_bus_V_A0A3.0" depart="0.00" departLane="A0A1_0" departPos="87.21" departSpeed="0.00" departDelay="0.00" arrival="137.00" arrivalLane="A2A3_0" arrivalPos="200.00" arrivalSpeed="10.65" duration="137.00" routeLength="512.79" waitingTime="76.00" waitingCount="1" stopTime="0.00" timeLoss="90.56" rerouteNo="0" devices="tripinfo_F_bus_V_A0A3.0 emissions_F_bus_V_A0A3.0" vType="bus" speedFactor="1.15" vaporized="">
        <emissions CO_abs="15433.111276" CO2_abs="350610.621067" HC_abs="78.383843" PMx_abs="7.132012" NOx_abs="149.857219" fuel_abs="111833.965177" electricity_abs="0"/>
    </tripinfo>
    <tripinfo id="veh_2_100_1" depart="100.00" departLane="A2B2_0" departPos="5.10" departSpeed="0.00" departDelay="0.00" arrival="147.00" arrivalLane="C2D2_0" arrivalPos="200.00" arrivalSpeed="13.18" duration="47.00" routeLength="594.90" waitingTime="0.00" waitingCount="0" stopTime="0.00" timeLoss="-0.65" rerouteNo="0" devices="tripinfo_veh_2_100_1 emissions_veh_2_100_1" vType="DEFAULT_VEHTYPE@veh_2_100_1" speedFactor="0.91" vaporized="">
        <emissions CO_abs="1462.331742" CO2_abs="133701.484703" HC_abs="9.541227" PMx_abs="2.014828" NOx_abs="51.311927" fuel_abs="42644.694944" electricity_abs="0"/>
    </tripinfo>
    <tripinfo id="veh_8_100_7" depart="100.00" departLane="C3C2_0" departPos="5.10" departSpeed="0.00" departDelay="0.00" arrival="150.00" arrivalLane="C1C0_0" arrivalPos="200.00" arrivalSpeed="12.81" duration="50.00" routeLength="594.90" waitingTime="0.00" waitingCount="0" stopTime="0.00" timeLoss="5.08" rerouteNo="0" devices="tripinfo_veh_8_100_7 emissions_veh_8_100_7" vType="DEFAULT_VEHTYPE@veh_8_100_7" speedFactor="1.18" vaporized="">
        <emissions CO_abs="1783.052517" CO2_abs="145565.538310" HC_abs="11.493633" PMx_abs="2.305100" NOx_abs="57.219572" fuel_abs="46428.774156" electricity_abs="0"/>
    </tripinfo>
    <tripinfo id="veh_1_100_0" depart="100.00" departLane="D0C0_0" departPos="5.10" departSpeed="0.00" departDelay="0.00" arrival="153.00" arrivalLane="B0A0_0" arrivalPos="200.00" arrivalSpeed="11.79" duration="53.00" routeLength="594.90" waitingTime="0.00" waitingCount="0" stopTime="0.00" timeLoss="5.25" rerouteNo="0" devices="tripinfo_veh_1_100_0 emissions_veh_1_100_0" vType="DEFAULT_VEHTYPE@veh_1_100_0" speedFactor="1.26" vaporized="">
        <emissions CO_abs="1608.422363" CO2_abs="129873.292731" HC_abs="10.165220" PMx_abs="1.899992" NOx_abs="49.960908" fuel_abs="41423.841397" electricity_abs="0"/>
    </tripinfo>
    <tripinfo id="veh_3_100_2" depart="103.00" departLane="D0C0_0" departPos="5.10" departSpeed="0.00" departDelay="3.00" arrival="154.00" arrivalLane="B0A0_0" arrivalPos="200.00" arrivalSpeed="13.75" duration="51.00" routeLength="594.90" waitingTime="0.00" waitingCount="0" stopTime="0.00" timeLoss="9.79" rerouteNo="0" devices="tripinfo_veh_3_100_2 emissions_veh_3_100_2" vType="DEFAULT_VEHTYPE@veh_3_100_2" speedFactor="1.18" vaporized="">
        <emissions CO_abs="1937.828180" CO2_abs="151216.733876" HC_abs="12.256729" PMx_abs="2.459176" NOx_abs="59.957085" fuel_abs="48231.209901" electricity_abs="0"/>
    </tripinfo>
    <tripinfo id="veh_5_100_4" depart="100.00" departLane="A0A1_0" departPos="5.10" departSpeed="0.00" departDelay="0.00" arrival="154.00" arrivalLane="A2A3_0" arrivalPos="200.00" arrivalSpeed="11.91" duration="54.00" routeLength="594.90" waitingTime="0.00" waitingCount="0" stopTime="0.00" timeLoss="5.36" rerouteNo="0" devices="tripinfo_veh_5_100_4 emissions_veh_5_100_4" vType="DEFAULT_VEHTYPE@veh_5_100_4" speedFactor="1.08" vaporized="">
        <emissions CO_abs="1616.232384" CO2_abs="134099.477382" HC_abs="10.377493" PMx_abs="1.840700" NOx_abs="50.891591" fuel_abs="42771.925523" electricity_abs="0"/>
    </tripinfo>
    <tripinfo id="veh_7_100_6" depart="103.00" departLane="A2B2_0" departPos="5.10" departSpeed="0.00" departDelay="3.00" arrival="173.00" arrivalLane="C2D2_0" arrivalPos="200.00" arrivalSpeed="8.65" duration="70.00" routeLength="594.90" waitingTime="0.00" waitingCount="0" stopTime="0.00" timeLoss="6.55" rerouteNo="0" devices="tripinfo_veh_7_100_6 emissions_veh_7_100_6" vType="DEFAULT_VEHTYPE@veh_7_100_6" speedFactor="1.03" vaporized="">
        <emissions CO_abs="2450.032859" CO2_abs="141682.709006" HC_abs="14.351392" PMx_abs="1.875332" NOx_abs="54.352437" fuel_abs="45191.122113" electricity_abs="0"/>
    </tripinfo>
    <tripinfo id="F_cars_V_B0B3.3" depart="1.00" departLane="B0B1_0" departPos="70.02" departSpeed="0.00" departDelay="0.70" arrival="187.00" arrivalLane="B2B3_0" arrivalPos="200.00" arrivalSpeed="13.20" duration="186.00" routeLength="529.98" waitingTime="125.00" waitingCount="2" stopTime="0.00" timeLoss="147.21" rerouteNo="0" devices="tripinfo_F_cars_V_B0B3.3 emissions_F_cars_V_B0B3.3" vType="car" speedFactor="1.05" vaporized="">
        <emissions CO_abs="24294.752155" CO2_abs="519964.610380" HC_abs="122.722145" PMx_abs="11.665827" NOx_abs="229.326383" fuel_abs="165852.290256" electricity_abs="0"/>
    </tripinfo>
    <tripinfo id="F_cars_V_B0B3.7" depart="1.00" departLane="B0B1_0" departPos="61.38" departSpeed="0.00" departDelay="0.30" arrival="189.00" arrivalLane="B2B3_0" arrivalPos="200.00" arrivalSpeed="12.82" duration="188.00" routeLength="538.62" waitingTime="124.00" waitingCount="2" stopTime="0.00" timeLoss="148.57" rerouteNo="0" devices="tripinfo_F_cars_V_B0B3.7 emissions_F_cars_V_B0B3.7" vType="car" speedFactor="1.03" vaporized="">
        <emissions CO_abs="24295.275357" CO2_abs="517926.275586" HC_abs="122.681958" PMx_abs="11.523371" NOx_abs="227.743298" fuel_abs="165202.306579" electricity_abs="0"/>
    </tripinfo>
    <tripinfo id="F_cars_V_C0C3.7" depart="2.00" departLane="C0C1_0" departPos="106.20" departSpeed="0.00" departDelay="1.30" arrival="189.00" arrivalLane="C2C3_0" arrivalPos="200.00" arrivalSpeed="11.11" duration="187.00" routeLength="493.80" waitingTime="126.00" waitingCount="2" stopTime="0.00" timeLoss="144.71" rerouteNo="0" devices="tripinfo_F_cars_V_C0C3.7 emissions_F_cars_V_C0C3.7" vType="car" speedFactor="0.86" vaporized="">
        <emissions CO_abs="24107.325646" CO2_abs="492310.684753" HC_abs="121.282401" PMx_abs="11.126141" NOx_abs="217.866831" fuel_abs="157032.171654" electricity_abs="0"/>
    </tripinfo>
    <tripinfo id="F_cars_V_C0C3.5" depart="2.00" departLane="C0C1_0" departPos="91.50" departSpeed="0.00" departDelay="1.50" arrival="190.00" arrivalLane="C2C3_0" arrivalPos="200.00" arrivalSpeed="11.64" duration="188.00" routeLength="508.50" waitingTime="125.00" waitingCount="2" stopTime="0.00" timeLoss="151.30" rerouteNo="0" devices="tripinfo_F_cars_V_C0C3.5 emissions_F_cars_V_C0C3.5" vType="car" speedFactor="1.06" vaporized="">
        <emissions CO_abs="24415.864846" CO2_abs="510805.945934" HC_abs="123.047743" PMx_abs="11.460292" NOx_abs="225.310803" fuel_abs="162931.327369" electricity_abs="0"/>
    </tripinfo>
    <tripinfo id="F_cars_V_B0B3.5" depart="1.00" departLane="B0B1_0" departPos="30.88" departSpeed="0.00" departDelay="0.50" arrival="192.00" arrivalLane="B2B3_0" arrivalPos="200.00" arrivalSpeed="11.53" duration="191.00" routeLength="569.12" waitingTime="121.00" waitingCount="2" stopTime="0.00" timeLoss="144.14" rerouteNo="0" devices="tripinfo_F_cars_V_B0B3.5 emissions_F_cars_V_B0B3.5" vType="car" speedFactor="0.88" vaporized="">
        <emissions CO_abs="23963.635445" CO2_abs="508774.966503" HC_abs="120.961213" PMx_abs="11.310726" NOx_abs="223.801241" fuel_abs="162283.392662" electricity_abs="0"/>
    </tripinfo>
    <tripinfo id="F_cars_V_C0C3.3" depart="1.00" departLane="C0C1_0" departPos="66.23" departSpeed="0.00" departDelay="0.70" arrival="192.00" arrivalLane="C2C3_0" arrivalPos="200.00" arrivalSpeed="11.96" duration="191.00" routeLength="533.77" waitingTime="124.00" waitingCount="2" stopTime="0.00" timeLoss="150.08" rerouteNo="0" devices="tripinfo_F_cars_V_C0C3.3 emissions_F_cars_V_C0C3.3" vType="car" speedFactor="0.94" vaporized="">
        <emissions CO_abs="24603.846378" CO2_abs="522222.539141" HC_abs="124.209781" PMx_abs="11.728310" NOx_abs="230.609206" fuel_abs="166572.605817" electricity_abs="0"/>
    </tripinfo>
    <tripinfo id="F_cars_V_B0B3.6" depart="1.00" departLane="B0B1_0" departPos="9.48" departSpeed="0.00" departDelay="0.40" arrival="194.00" arrivalLane="B2B3_0" arrivalPos="200.00" arrivalSpeed="13.80" duration="193.00" routeLength="590.52" waitingTime="119.00" waitingCount="2" stopTime="0.00" timeLoss="149.99" rerouteNo="0" devices="tripinfo_F_cars_V_B0B3.6 emissions_F_cars_V_B0B3.6" vType="car" speedFactor="1.12" vaporized="">