<?xml version="1.0" encoding="UTF-8"?>

<!-- generated on 2025-08-20 00:29:57 by Eclipse SUMO GUI Version 1.22.0
<sumoConfiguration xmlns:xsi="http://www.w3.org/2001/XMLSchema-instance" xsi:noNamespaceSchemaLocation="http://sumo.dlr.de/xsd/sumoConfiguration.xsd">

    <input>
        <net-file value="grid.net.xml"/>
        <route-files value="traffic.rou.xml"/>
        <additional-files value="detectores.add.xml"/>
    </input>

    <output>
        <emission-output value="emission.xml"/>
        <tripinfo-output value="tripinfo.xml"/>
    </output>

    <time>
        <begin value="0"/>
        <end value="3600"/>
    </time>

    <processing>
        <ignore-route-errors value="true"/>
    </processing>

    <report>
        <verbose value="true"/>
        <duration-log.statistics value="true"/>
        <no-step-log value="true"/>
    </report>

    <traci_server>
        <remote-port value="56295"/>
    </traci_server>

    <gui_only>
        <quit-on-end value="true"/>
        <start value="true"/>
    </gui_only>

</sumoConfiguration>
-->

<tripinfos xmlns:xsi="http://www.w3.org/2001/XMLSchema-instance" xsi:noNamespaceSchemaLocation="http://sumo.dlr.de/xsd/tripinfo_file.xsd">
    <tripinfo id="F_car_H_A0D0.0" depart="0.00" departLane="A0B0_0" departPos="5.10" departSpeed="0.00" departDelay="0.00" arrival="48.00" arrivalLane="C0D0_0" arrivalPos="200.00" arrivalSpeed="13.28" duration="48.00" routeLength="594.90" waitingTime="0.00" waitingCount="0" stopTime="0.00" timeLoss="4.95" rerouteNo="0" devices="tripinfo_F_car_H_A0D0.0 emissions_F_car_H_A0D0.0" vType="car" speedFactor="1.06" vaporized="">
        <emissions CO_abs="1566.821369" CO2_abs="135662.343888" HC_abs="10.143429" PMx_abs="2.080570" NOx_abs="52.570537" fuel_abs="43270.124738" electricity_abs="0"/>
    </tripinfo>
    <tripinfo id="F_car_V_B3B0.0" depart="0.00" departLane="B3B2_0" departPos="5.10" departSpeed="0.00" departDelay="0.00" arrival="57.00" arrivalLane="B1B0_0" arrivalPos="200.00" arrivalSpeed="13.19" duration="57.00" routeLength="594.90" waitingTime="4.00" waitingCount="1" stopTime="0.00" timeLoss="14.16" rerouteNo="0" devices="tripinfo_F_car_V_B3B0.0 emissions_F_car_V_B3B0.0" vType="car" speedFactor="1.08" vaporized="">
        <emissions CO_abs="3016.150057" CO2_abs="175266.112504" HC_abs="17.626927" PMx_abs="2.919731" NOx_abs="69.700462" fuel_abs="55902.272934" electricity_abs="0"/>
    </tripinfo>
    <tripinfo id="F_car_H_A0D0.1" depart="15.00" departLane="A0B0_0" departPos="5.10" departSpeed="0.00" departDelay="0.00" arrival="63.00" arrivalLane="C0D0_0" arrivalPos="200.00" arrivalSpeed="12.79" duration="48.00" routeLength="594.90" waitingTime="0.00" waitingCount="0" stopTime="0.00" timeLoss="4.76" rerouteNo="0" devices="tripinfo_F_car_H_A0D0.1 emissions_F_car_H_A0D0.1" vType="car" speedFactor="1.05" vaporized="">
        <emissions CO_abs="1363.658364" CO2_abs="132426.705735" HC_abs="8.949584" PMx_abs="1.813338" NOx_abs="49.508371" fuel_abs="42238.247427" electricity_abs="0"/>
    </tripinfo>
    <tripinfo id="F_car_H_A0D0.2" depart="30.00" departLane="A0B0_0" departPos="5.10" departSpeed="0.00" departDelay="0.00" arrival="107.00" arrivalLane="C0D0_0" arrivalPos="200.00" arrivalSpeed="13.22" duration="77.00" routeLength="594.90" waitingTime="24.00" waitingCount="1" stopTime="0.00" timeLoss="33.94" rerouteNo="0" devices="tripinfo_F_car_H_A0D0.2 emissions_F_car_H_A0D0.2" vType="car" speedFactor="1.09" vaporized="">
        <emissions CO_abs="6434.805750" CO2_abs="222498.131718" HC_abs="34.300364" PMx_abs="4.269229" NOx_abs="92.615850" fuel_abs="70968.215514" electricity_abs="0"/>
    </tripinfo>
    <tripinfo id="F_car_V_B0B3.0" depart="0.00" departLane="B0B1_0" departPos="5.10" departSpeed="0.00" departDelay="0.00" arrival="108.00" arrivalLane="B2B3_0" arrivalPos="200.00" arrivalSpeed="12.62" duration="108.00" routeLength="594.90" waitingTime="55.00" waitingCount="1" stopTime="0.00" timeLoss="64.82" rerouteNo="0" devices="tripinfo_F_car_V_B0B3.0 emissions_F_car_V_B0B3.0" vType="car" speedFactor="1.01" vaporized="">
        <emissions CO_abs="11582.602022" CO2_abs="310382.526598" HC_abs="59.846703" PMx_abs="6.438780" NOx_abs="132.544142" fuel_abs="99001.019858" electricity_abs="0"/>
    </tripinfo>
    <tripinfo id="F_car_H_D0A0.0" depart="0.00" departLane="D0C0_0" departPos="5.10" departSpeed="0.00" departDelay="0.00" arrival="109.00" arrivalLane="B0A0_0" arrivalPos="200.00" arrivalSpeed="12.26" duration="109.00" routeLength="594.90" waitingTime="53.00" waitingCount="1" stopTime="0.00" timeLoss="62.77" rerouteNo="0" devices="tripinfo_F_car_H_D0A0.0 emissions_F_car_H_D0A0.0" vType="car" speedFactor="0.94" vaporized="">
        <emissions CO_abs="11073.887575" CO2_abs="303928.561424" HC_abs="57.328660" PMx_abs="6.056505" NOx_abs="128.458497" fuel_abs="96942.527276" electricity_abs="0"/>
    </tripinfo>
    <tripinfo id="F_car_V_B0B3.1" depart="15.00" departLane="B0B1_0" departPos="5.10" departSpeed="0.00" departDelay="0.00" arrival="111.00" arrivalLane="B2B3_0" arrivalPos="200.00" arrivalSpeed="12.75" duration="96.00" routeLength="594.90" waitingTime="31.00" waitingCount="2" stopTime="0.00" timeLoss="49.99" rerouteNo="0" devices="tripinfo_F_car_V_B0B3.1 emissions_F_car_V_B0B3.1" vType="car" speedFactor="0.94" vaporized="">
        <emissions CO_abs="8494.638338" CO2_abs="273001.472515" HC_abs="44.918441" PMx_abs="5.160187" NOx_abs="113.790910" fuel_abs="87077.259564" electricity_abs="0"/>
    </tripinfo>
    <tripinfo id="F_bus_V_C0C3.0" depart="0.00" departLane="C0C1_0" departPos="12.10" departSpeed="0.00" departDelay="0.00" arrival="112.00" arrivalLane="C2C3_0" arrivalPos="200.00" arrivalSpeed="10.58" duration="112.00" routeLength="587.90" waitingTime="39.00" waitingCount="2" stopTime="0.00" timeLoss="58.86" rerouteNo="0" devices="tripinfo_F_bus_V_C0C3.0 emissions_F_bus_V_C0C3.0" vType="bus" speedFactor="1.03" vaporized="">
        <emissions CO_abs="10301.654831" CO2_abs="285508.545972" HC_abs="53.493798" PMx_abs="5.366168" NOx_abs="119.296922" fuel_abs="91067.466907" electricity_abs="0"/>
    </tripinfo>
    <tripinfo id="F_car_V_B0B3.2" depart="30.00" departLane="B0B1_0" departPos="5.10" departSpeed="0.00" departDelay="0.00" arrival="113.00" arrivalLane="B2B3_0" arrivalPos="200.00" arrivalSpeed="13.65" duration="83.00" routeLength="594.90" waitingTime="26.00" waitingCount="1" stopTime="0.00" timeLoss="39.53" rerouteNo="0" devices="tripinfo_F_car_V_B0B3.2 emissions_F_car_V_B0B3.2" vType="car" speedFactor="1.05" vaporized="">
        <emissions CO_abs="7052.040086" CO2_abs="241386.651791" HC_abs="37.491980" PMx_abs="4.504658" NOx_abs="99.700063" fuel_abs="76993.105378" electricity_abs="0"/>
    </tripinfo>
    <tripinfo id="F_car_H_A0D0.3" depart="45.00" departLane="A0B0_0" departPos="5.10" departSpeed="0.00" departDelay="0.00" arrival="123.00" arrivalLane="C0D0_0" arrivalPos="200.00" arrivalSpeed="13.55" duration="78.00" routeLength="594.90" waitingTime="24.00" waitingCount="1" stopTime="0.00" timeLoss="33.83" rerouteNo="0" devices="tripinfo_F_car_H_A0D0.3 emissions_F_car_H_A0D0.3" vType="car" speedFactor="0.99" vaporized="">
        <emissions CO_abs="6433.201452" CO2_abs="229790.981120" HC_abs="34.448886" PMx_abs="4.341218" NOx_abs="95.219298" fuel_abs="73294.296294" electricity_abs="0"/>
    </tripinfo>
    <tripinfo id="F_car_H_D0A0.1" depart="15.00" departLane="D0C0_0" departPos="5.10" departSpeed="0.00" departDelay="0.00" arrival="126.00" arrivalLane="B0A0_0" arrivalPos="200.00" arrivalSpeed="11.60" duration="111.00" routeLength="594.90" waitingTime="53.00" waitingCount="1" stopTime="0.00" timeLoss="62.49" rerouteNo="0" devices="tripinfo_F_car_H_D0A0.1 emissions_F_car_H_D0A0.1" vType="car" speedFactor="0.89" vaporized="">
        <emissions CO_abs="11252.936299" CO2_abs="302419.162665" HC_abs="58.218318" PMx_abs="6.051536" NOx_abs="128.152465" fuel_abs="96461.212786" electricity_abs="0"/>
    </tripinfo>
    <tripinfo id="F_car_H_A0D0.4" depart="60.00" departLane="A0B0_0" departPos="5.10" departSpeed="0.00" departDelay="0.00" arrival="126.00" arrivalLane="C0D0_0" arrivalPos="200.00" arrivalSpeed="12.56" duration="66.00" routeLength="594.90" waitingTime="9.00" waitingCount="1" stopTime="0.00" timeLoss="20.16" rerouteNo="0" devices="tripinfo_F_car_H_A0D0.4 emissions_F_car_H_A0D0.4" vType="car" speedFactor="0.94" vaporized="">
        <emissions CO_abs="3920.568712" CO2_abs="179702.312981" HC_abs="21.925248" PMx_abs="3.087184" NOx_abs="72.558319" fuel_abs="57317.634957" electricity_abs="0"/>
    </tripinfo>
    <tripinfo id="F_car_H_D0A0.2" depart="30.00" departLane="D0C0_0" departPos="5.10" departSpeed="0.00" departDelay="0.00" arrival="128.00" arrivalLane="B0A0_0" arrivalPos="200.00" arrivalSpeed="13.61" duration="98.00" routeLength="594.90" waitingTime="41.00" waitingCount="1" stopTime="0.00" timeLoss="54.66" rerouteNo="0" devices="tripinfo_F_car_H_D0A0.2 emissions_F_car_H_D0A0.2" vType="car" speedFactor="1.03" vaporized="">
        <emissions CO_abs="9635.919365" CO2_abs="287721.196040" HC_abs="50.453036" PMx_abs="5.767415" NOx_abs="121.968299" fuel_abs="91772.360158" electricity_abs="0"/>
    </tripinfo>
    <tripinfo id="F_car_H_A0D0.5" depart="75.00" departLane="A0B0_0" departPos="5.10" departSpeed="0.00" departDelay="0.00" arrival="128.00" arrivalLane="C0D0_0" arrivalPos="200.00" arrivalSpeed="13.15" duration="53.00" routeLength="594.90" waitingTime="0.00" waitingCount="0" stopTime="0.00" timeLoss="8.77" rerouteNo="0" devices="tripinfo_F_car_H_A0D0.5 emissions_F_car_H_A0D0.5" vType="car" speedFactor="0.97" vaporized="">
        <emissions CO_abs="2046.383924" CO2_abs="155469.470110" HC_abs="12.738128" PMx_abs="2.469006" NOx_abs="61.244777" fuel_abs="49587.728998" electricity_abs="0"/>
    </tripinfo>
    <tripinfo id="F_car_H_D0A0.3" depart="45.00" departLane="D0C0_0" departPos="5.10" departSpeed="0.00" departDelay="0.00" arrival="130.00" arrivalLane="B0A0_0" arrivalPos="200.00" arrivalSpeed="12.03" duration="85.00" routeLength="594.90" waitingTime="27.00" waitingCount="1" stopTime="0.00" timeLoss="38.15" rerouteNo="0" devices="tripinfo_F_car_H_D0A0.3 emissions_F_car_H_D0A0.3" vType="car" speedFactor="0.93" vaporized="">
        <emissions CO_abs="7099.228752" CO2_abs="239508.939050" HC_abs="37.723815" PMx_abs="4.568078" NOx_abs="99.755817" fuel_abs="76394.148397" electricity_abs="0"/>
    </tripinfo>
    <tripinfo id="F_car_H_D0A0.4" depart="60.00" departLane="D0C0_0" departPos="5.10" departSpeed="0.00" departDelay="0.00" arrival="132.00" arrivalLane="B0A0_0" arrivalPos="200.00" arrivalSpeed="13.80" duration="72.00" routeLength="594.90" waitingTime="14.00" waitingCount="1" stopTime="0.00" timeLoss="28.21" rerouteNo="0" devices="tripinfo_F_car_H_D0A0.4 emissions_F_car_H_D0A0.4" vType="car" speedFactor="1.16" vaporized="">
        <emissions CO_abs="5261.400848" CO2_abs="219904.355737" HC_abs="29.006153" PMx_abs="4.083372" NOx_abs="90.913246" fuel_abs="70140.367100" electricity_abs="0"/>
    </tripinfo>
    <tripinfo id="F_car_V_B3B0.1" depart="15.00" departLane="B3B2_0" departPos="5.10" departSpeed="0.00" departDelay="0.00" arrival="140.00" arrivalLane="B1B0_0" arrivalPos="200.00" arrivalSpeed="11.36" duration="125.00" routeLength="594.90" waitingTime="57.00" waitingCount="2" stopTime="0.00" timeLoss="74.56" rerouteNo="0" devices="tripinfo_F_car_V_B3B0.1 emissions_F_car_V_B3B0.1" vType="car" speedFactor="0.86" vaporized="">
        <emissions CO_abs="12834.915760" CO2_abs="335590.272949" HC_abs="66.240396" PMx_abs="6.783101" NOx_abs="143.084199" fuel_abs="107041.763153" electricity_abs="0"/>
    </tripinfo>
    <tripinfo id="F_bus_V_C3C0.0" depart="0.00" departLane="C3C2_0" departPos="12.10" departSpeed="0.00" departDelay="0.00" arrival="142.00" arrivalLane="C1C0_0" arrivalPos="200.00" arrivalSpeed="10.76" duration="142.00" routeLength="587.90" waitingTime="69.00" waitingCount="2" stopTime="0.00" timeLoss="88.93" rerouteNo="0" devices="tripinfo_F_bus_V_C3C0.0 emissions_F_bus_V_C3C0.0" vType="bus" speedFactor="0.83" vaporized="">
        <emissions CO_abs="15235.806858" CO2_abs="371611.278375" HC_abs="77.970572" PMx_abs="7.382700" NOx_abs="157.797250" fuel_abs="118532.004786" electricity_abs="0"/>
    </tripinfo>
    <tripinfo id="F_car_V_B3B0.2" depart="30.00" departLane="B3B2_0" departPos="5.10" departSpeed="0.00" departDelay="0.00" arrival="142.00" arrivalLane="B1B0_0" arrivalPos="200.00" arrivalSpeed="13.40" duration="112.00" routeLength="594.90" waitingTime="45.00" waitingCount="2" stopTime="0.00" timeLoss="68.46" rerouteNo="0" devices="tripinfo_F_car_V_B3B0.2 emissions_F_car_V_B3B0.2" vType="car" speedFactor="1.12" vaporized="">
        <emissions CO_abs="11443.978398" CO2_abs="332358.714855" HC_abs="59.845883" PMx_abs="6.837533" NOx_abs="142.527110" fuel_abs="106010.048514" electricity_abs="0"/>
    </tripinfo>
    <tripinfo id="F_car_H_A0D0.6" depart="90.00" departLane="A0B0_0" departPos="5.10" departSpeed="0.00" departDelay="0.00" arrival="142.00" arrivalLane="C0D0_0" arrivalPos="200.00" arrivalSpeed="12.40" duration="52.00" routeLength="594.90" waitingTime="0.00" waitingCount="0" stopTime="0.00" timeLoss="5.23" rerouteNo="0" devices="tripinfo_F_car_H_A0D0.6 emissions_F_car_H_A0D0.6" vType="car" speedFactor="0.92" vaporized="">
        <emissions CO_abs="1519.547484" CO2_abs="134417.437029" HC_abs="9.869720" PMx_abs="1.834030" NOx_abs="50.679564" fuel_abs="42873.303588" electricity_abs="0"/>
    </tripinfo>
    <tripinfo id="F_car_V_B3B0.3" depart="45.00" departLane="B3B2_0" departPos="5.10" departSpeed="0.00" departDelay="0.00" arrival="144.00" arrivalLane="B1B0_0" arrivalPos="200.00" arrivalSpeed="12.74" duration="99.00" routeLength="594.90" waitingTime="32.00" waitingCount="2" stopTime="0.00" timeLoss="52.58" rerouteNo="0" devices="tripinfo_F_car_V_B3B0.3 emissions_F_car_V_B3B0.3" vType="car" speedFactor="0.94" vaporized="">
        <emissions CO_abs="9251.558571" CO2_abs="290971.235679" HC_abs="48.869466" PMx_abs="5.822240" NOx_abs="123.687665" fuel_abs="92808.688293" electricity_abs="0"/>
    </tripinfo>
    <tripinfo id="F_car_V_B3B0.4" depart="60.00" departLane="B3B2_0" departPos="5.10" departSpeed="0.00" departDelay="0.00" arrival="145.00" arrivalLane="B1B0_0" arrivalPos="200.00" arrivalSpeed="13.07" duration="85.00" routeLength="594.90" waitingTime="17.00" waitingCount="3" stopTime="0.00" timeLoss="41.99" rerouteNo="0" devices="tripinfo_F_car_V_B3B0.4 emissions_F_car_V_B3B0.4" vType="car" speedFactor="1.01" vaporized="">
        <emissions CO_abs="7042.959989" CO2_abs="255602.216589" HC_abs="38.016945" PMx_abs="4.953941" NOx_abs="107.590668" fuel_abs="81526.819166" electricity_abs="0"/>
    </tripinfo>
    <tripinfo id="F_car_V_B3B0.5" depart="75.00" departLane="B3B2_0" departPos="5.10" departSpeed="0.00" departDelay="0.00" arrival="148.00" arrivalLane="B1B0_0" arrivalPos="200.00" arrivalSpeed="10.99" duration="73.00" routeLength="594.90" waitingTime="3.00" waitingCount="1" stopTime="0.00" timeLoss="23.03" rerouteNo="0" devices="tripinfo_F_car_V_B3B0.5 emissions_F_car_V_B3B0.5" vType="car" speedFactor="0.87" vaporized="">
        <emissions CO_abs="4425.590345" CO2_abs="198394.626844" HC_abs="24.755643" PMx_abs="3.486945" NOx_abs="81.229535" fuel_abs="63279.651105" electricity_abs="0"/>
    </tripinfo>
    <tripinfo id="F_car_H_A0D0.7" depart="105.00" departLane="A0B0_0" departPos="5.10" departSpeed="0.00" departDelay="0.00" arrival="154.00" arrivalLane="C0D0_0" arrivalPos="200.00" arrivalSpeed="13.52" duration="49.00" routeLength="594.90" waitingTime="0.00" waitingCount="0" stopTime="0.00" timeLoss="5.70" rerouteNo="0" devices="tripinfo_F_car_H_A0D0.7 emissions_F_car_H_A0D0.7" vType="car" speedFactor="1.18" vaporized="">
        <emissions CO_abs="1527.029957" CO2_abs="139793.616705" HC_abs="9.892032" PMx_abs="1.948199" NOx_abs="52.517765" fuel_abs="44587.990454" electricity_abs="0"/>
    </tripinfo>
    <tripinfo id="F_car_H_A0D0.8" depart="120.00" departLane="A0B0_0" departPos="5.10" departSpeed="0.00" departDelay="0.00" arrival="198.00" arrivalLane="C0D0_0" arrivalPos="200.00" arrivalSpeed="13.05" duration="78.00" routeLength="594.90" waitingTime="24.00" waitingCount="1" stopTime="0.00" timeLoss="34.31" rerouteNo="0" devices="tripinfo_F_car_H_A0D0.8 emissions_F_car_H_A0D0.8" vType="car" speedFactor="0.99" vaporized="">
        <emissions CO_abs="6185.404237" CO2_abs="227946.722360" HC_abs="33.407088" PMx_abs="4.160941" NOx_abs="93.508795" fuel_abs="72706.115476" electricity_abs="0"/>
    </tripinfo>
    <tripinfo id="F_car_V_B0B3.3" depart="96.00" departLane="B0B1_0" departPos="5.10" departSpeed="0.00" departDelay="51.00" arrival="199.00" arrivalLane="B2B3_0" arrivalPos="200.00" arrivalSpeed="11.75" duration="103.00" routeLength="594.90" waitingTime="39.00" waitingCount="2" stopTime="0.00" timeLoss="53.78" rerouteNo="0" devices="tripinfo_F_car_V_B0B3.3 emissions_F_car_V_B0B3.3" vType="car" speedFactor="0.88" vaporized="">
        <emissions CO_abs="9563.566734" CO2_abs="286294.186126" HC_abs="50.151736" PMx_abs="5.569020" NOx_abs="120.516606" fuel_abs="91317.374180" electricity_abs="0"/>
    </tripinfo>
    <tripinfo id="F_car_H_D0A0.5" depart="75.00" departLane="D0C0_0" departPos="5.10" departSpeed="0.00" departDelay="0.00" arrival="199.00" arrivalLane="B0A0_0" arrivalPos="200.00" arrivalSpeed="11.13" duration="124.00" routeLength="594.90" waitingTime="61.00" waitingCount="1" stopTime="0.00" timeLoss="75.40" rerouteNo="0" devices="tripinfo_F_car_H_D0A0.5 emissions_F_car_H_D0A0.5" vType="car" speedFactor="0.89" vaporized="">
        <emissions CO_abs="12997.544671" CO2_abs="342917.890027" HC_abs="67.117598" PMx_abs="6.873711" NOx_abs="145.650084" fuel_abs="109379.019552" electricity_abs="0"/>
    </tripinfo>
    <tripinfo id="F_car_V_B0B3.4" depart="99.00" departLane="B0B1_0" departPos="5.10" departSpeed="0.00" departDelay="39.00" arrival="201.00" arrivalLane="B2B3_0" arrivalPos="200.00" arrivalSpeed="13.85" duration="102.00" routeLength="594.90" waitingTime="38.00" waitingCount="2" stopTime="0.00" timeLoss="58.36" rerouteNo="0" devices="tripinfo_F_car_V_B0B3.4 emissions_F_car_V_B0B3.4" vType="car" speedFactor="1.02" vaporized="">
        <emissions CO_abs="10018.093562" CO2_abs="303853.344081" HC_abs="52.666220" PMx_abs="6.199024" NOx_abs="129.881797" fuel_abs="96917.679487" electricity_abs="0"/>
    </tripinfo>
    <tripinfo id="F_car_H_D0A0.6" depart="90.00" departLane="D0C0_0" departPos="5.10" departSpeed="0.00" departDelay="0.00" arrival="201.00" arrivalLane="B0A0_0" arrivalPos="200.00" arrivalSpeed="12.63" duration="111.00" routeLength="594.90" waitingTime="54.00" waitingCount="1" stopTime="0.00" timeLoss="65.04" rerouteNo="0" devices="tripinfo_F_car_H_D0A0.6 emissions_F_car_H_D0A0.6" vType="car" speedFactor="0.95" vaporized="">
        <emissions CO_abs="11423.862493" CO2_abs="308230.254909" HC_abs="59.097112" PMx_abs="6.220985" NOx_abs="130.838827" fuel_abs="98314.658567" electricity_abs="0"/>
    </tripinfo>
    <tripinfo id="F_bus_V_C0C3.1" depart="120.00" departLane="C0C1_0" departPos="12.10" departSpeed="0.00" departDelay="0.00" arrival="201.00" arrivalLane="C2C3_0" arrivalPos="200.00" arrivalSpeed="10.85" duration="81.00" routeLength="587.90" waitingTime="15.00" waitingCount="1" stopTime="0.00" timeLoss="27.91" rerouteNo="0" devices="tripinfo_F_bus_V_C0C3.1 emissions_F_bus_V_C0C3.1" vType="bus" speedFactor="1.10" vaporized="">
        <emissions CO_abs="5316.278607" CO2_abs="202806.604707" HC_abs="28.819307" PMx_abs="3.119527" NOx_abs="79.940280" fuel_abs="64687.911141" electricity_abs="0"/>
    </tripinfo>
    <tripinfo id="F_car_V_B0B3.5" depart="102.00" departLane="B0B1_0" departPos="5.10" departSpeed="0.00" departDelay="27.00" arrival="204.00" arrivalLane="B2B3_0" arrivalPos="200.00" arrivalSpeed="10.93" duration="102.00" routeLength="594.90" waitingTime="34.00" waitingCount="1" stopTime="0.00" timeLoss="50.03" rerouteNo="0" devices="tripinfo_F_car_V_B0B3.5 emissions_F_car_V_B0B3.5" vType="car" speedFactor="0.83" vaporized="">
        <emissions CO_abs="9022.565942" CO2_abs="268602.672050" HC_abs="47.321310" PMx_abs="5.148526" NOx_abs="112.845692" fuel_abs="85674.532108" electricity_abs="0"/>
    </tripinfo>
    <tripinfo id="F_car_V_B0B3.6" depart="105.00" departLane="B0B1_0" departPos="5.10" departSpeed="0.00" departDelay="15.00" arrival="206.00" arrivalLane="B2B3_0" arrivalPos="200.00" arrivalSpeed="13.46" duration="101.00" routeLength="594.90" waitingTime="34.00" waitingCount="1" stopTime="0.00" timeLoss="57.69" rerouteNo="0" devices="tripinfo_F_car_V_B0B3.6 emissions_F_car_V_B0B3.6" vType="car" speedFactor="1.13" vaporized="">
        <emissions CO_abs="9464.340420" CO2_abs="291629.195403" HC_abs="49.927524" PMx_abs="5.848589" NOx_abs="124.289897" fuel_abs="93018.645316" electricity_abs="0"/>
    </tripinfo>
    <tripinfo id="F_car_H_D0A0.7" depart="105.00" departLane="D0C0_0" departPos="5.10" departSpeed="0.00" departDelay="0.00" arrival="212.00" arrivalLane="B0A0_0" arrivalPos="200.00" arrivalSpeed="13.69" duration="107.00" routeLength="594.90" waitingTime="53.00" waitingCount="1" stopTime="0.00" timeLoss="64.14" rerouteNo="0" devices="tripinfo_F_car_H_D0A0.7 emissions_F_car_H_D0A0.7" vType="car" speedFactor="1.15" vaporized="">
        <emissions CO_abs="11317.950441" CO2_abs="306890.461126" HC_abs="58.401360" PMx_abs="6.189029" NOx_abs="129.480396" fuel_abs="97887.295773" electricity_abs="0"/>
    </tripinfo>
    <tripinfo id="F_car_H_A0D0.9" depart="135.00" departLane="A0B0_0" departPos="5.10" departSpeed="0.00" departDelay="0.00" arrival="213.00" arrivalLane="C0D0_0" arrivalPos="200.00" arrivalSpeed="13.57" duration="78.00" routeLength="594.90" waitingTime="22.00" waitingCount="1" stopTime="0.00" timeLoss="34.52" rerouteNo="0" devices="tripinfo_F_car_H_A0D0.9 emissions_F_car_H_A0D0.9" vType="car" speedFactor="1.03" vaporized="">
        <emissions CO_abs="6479.771612" CO2_abs="232254.082862" HC_abs="34.859172" PMx_abs="4.444180" NOx_abs="96.722374" fuel_abs="74079.860176" electricity_abs="0"/>
    </tripinfo>
    <tripinfo id="F_car_H_D0A0.8" depart="120.00" departLane="D0C0_0" departPos="5.10" departSpeed="0.00" departDelay="0.00" arrival="215.00" arrivalLane="B0A0_0" arrivalPos="200.00" arrivalSpeed="12.78" duration="95.00" routeLength="594.90" waitingTime="41.00" waitingCount="1" stopTime="0.00" timeLoss="51.46" rerouteNo="0" devices="tripinfo_F_car_H_D0A0.8 emissions_F_car_H_D0A0.8" vType="car" speedFactor="1.02" vaporized="">
        <emissions CO_abs="9174.259261" CO2_abs="273552.145994" HC_abs="47.972046" PMx_abs="5.360998" NOx_abs="114.660971" fuel_abs="87253.140849" electricity_abs="0"/>
    </tripinfo>
    <tripinfo id="F_car_H_A0D0.10" depart="150.00" departLane="A0B0_0" departPos="5.10" departSpeed="0.00" departDelay="0.00" arrival="215.00" arrivalLane="C0D0_0" arrivalPos="200.00" arrivalSpeed="13.58" duration="65.00" routeLength="594.90" waitingTime="10.00" waitingCount="1" stopTime="0.00" timeLoss="21.32" rerouteNo="0" devices="tripinfo_F_car_H_A0D0.10 emissions_F_car_H_A0D0.10" vType="car" speedFactor="1.04" vaporized="">
        <emissions CO_abs="4008.420218" CO2_abs="193656.066711" HC_abs="22.575603" PMx_abs="3.294991" NOx_abs="77.558525" fuel_abs="61768.215684" electricity_abs="0"/>
    </tripinfo>
    <tripinfo id="F_car_V_B3B0.6" depart="90.00" departLane="B3B2_0" departPos="5.10" departSpeed="0.00" departDelay="0.00" arrival="218.00" arrivalLane="B1B0_0" arrivalPos="200.00" arrivalSpeed="12.67" duration="128.00" routeLength="594.90" waitingTime="68.00" waitingCount="1" stopTime="0.00" timeLoss="81.22" rerouteNo="0" devices="tripinfo_F_car_V_B3B0.6 emissions_F_car_V_B3B0.6" vType="car" speedFactor="0.93" vaporized="">
        <emissions CO_abs="13981.500642" CO2_abs="365653.342884" HC_abs="72.078058" PMx_abs="7.481238" NOx_abs="156.147633" fuel_abs="116630.750520" electricity_abs="0"/>
    </tripinfo>
    <tripinfo id="F_car_H_D0A0.9" depart="135.00" departLane="D0C0_0" departPos="5.10" departSpeed="0.00" departDelay="0.00" arrival="218.00" arrivalLane="B0A0_0" arrivalPos="200.00" arrivalSpeed="12.43" duration="83.00" routeLength="594.90" waitingTime="25.00" waitingCount="1" stopTime="0.00" timeLoss="37.61" rerouteNo="0" devices="tripinfo_F_car_H_D0A0.9 emissions_F_car_H_D0A0.9" vType="car" speedFactor="0.96" vaporized="">
        <emissions CO_abs="6733.957099" CO2_abs="234875.965209" HC_abs="35.825879" PMx_abs="4.193196" NOx_abs="95.448791" fuel_abs="74916.603512" electricity_abs="0"/>
    </tripinfo>
    <tripinfo id="F_car_V_B3B0.7" depart="105.00" departLane="B3B2_0" departPos="5.10" departSpeed="0.00" departDelay="0.00" arrival="219.00" arrivalLane="B1B0_0" arrivalPos="200.00" arrivalSpeed="12.84" duration="114.00" routeLength="594.90" waitingTime="56.00" waitingCount="1" stopTime="0.00" timeLoss="71.14" rerouteNo="0" devices="tripinfo_F_car_V_B3B0.7 emissions_F_car_V_B3B0.7" vType="car" speedFactor="1.17" vaporized="">
        <emissions CO_abs="12393.759809" CO2_abs="342353.127738" HC_abs="64.324423" PMx_abs="7.081839" NOx_abs="146.728720" fuel_abs="109198.255154" electricity_abs="0"/>
    </tripinfo>
    <tripinfo id="F_car_H_D0A0.10" depart="150.00" departLane="D0C0_0" departPos="5.10" departSpeed="0.00" departDelay="0.00" arrival="220.00" arrivalLane="B0A0_0" arrivalPos="200.00" arrivalSpeed="13.33" duration="70.00" routeLength="594.90" waitingTime="14.00" waitingCount="1" stopTime="0.00" timeLoss="26.25" rerouteNo="0" devices="tripinfo_F_car_H_D0A0.10 emissions_F_car_H_D0A0.10" vType="car" speedFactor="1.09" vaporized="">
        <emissions CO_abs="5076.063382" CO2_abs="215832.487142" HC_abs="27.932740" PMx_abs="3.943384" NOx_abs="88.561625" fuel_abs="68841.619950" electricity_abs="0"/>
    </tripinfo>
    <tripinfo id="F_car_V_B3B0.8" depart="120.00" departLane="B3B2_0" departPos="5.10" departSpeed="0.00" departDelay="0.00" arrival="221.00" arrivalLane="B1B0_0" arrivalPos="200.00" arrivalSpeed="12.81" duration="101.00" routeLength="594.90" waitingTime="42.00" waitingCount="1" stopTime="0.00" timeLoss="57.94" rerouteNo="0" devices="tripinfo_F_car_V_B3B0.8 emissions_F_car_V_B3B0.8" vType="car" speedFactor="1.18" vaporized="">
        <emissions CO_abs="10366.215124" CO2_abs="314266.736183" HC_abs="54.578956" PMx_abs="6.556818" NOx_abs="135.239212" fuel_abs="100239.002697" electricity_abs="0"/>
    </tripinfo>
    <tripinfo id="F_bus_V_C3C0.1" depart="120.00" departLane="C3C2_0" departPos="12.10" departSpeed="0.00" departDelay="0.00" arrival="221.00" arrivalLane="C1C0_0" arrivalPos="200.00" arrivalSpeed="10.86" duration="101.00" routeLength="587.90" waitingTime="34.00" waitingCount="1" stopTime="0.00" timeLoss="47.36" rerouteNo="0" devices="tripinfo_F_bus_V_C3C0.1 emissions_F_bus_V_C3C0.1" vType="bus" speedFactor="0.90" vaporized="">
        <emissions CO_abs="8445.219206" CO2_abs="251072.993239" HC_abs="44.205104" PMx_abs="4.377720" NOx_abs="102.390168" fuel_abs="80083.721423" electricity_abs="0"/>
    </tripinfo>
    <tripinfo id="F_car_H_A0D0.11" depart="165.00" departLane="A0B0_0" departPos="5.10" departSpeed="0.00" departDelay="0.00" arrival="221.00" arrivalLane="C0D0_0" arrivalPos="200.00" arrivalSpeed="11.35" duration="56.00" routeLength="594.90" waitingTime="0.00" waitingCount="0" stopTime="0.00" timeLoss="6.43" rerouteNo="0" devices="tripinfo_F_car_H_A0D0.11 emissions_F_car_H_A0D0.11" vType="car" speedFactor="0.88" vaporized="">
        <emissions CO_abs="1860.858761" CO2_abs="146574.643466" HC_abs="11.806467" PMx_abs="2.091344" NOx_abs="56.357066" fuel_abs="46750.921723" electricity_abs="0"/>
    </tripinfo>
    <tripinfo id="F_car_V_B3B0.9" depart="135.00" departLane="B3B2_0" departPos="5.10" departSpeed="0.00" departDelay="0.00" arrival="223.00" arrivalLane="B1B0_0" arrivalPos="200.00" arrivalSpeed="13.34" duration="88.00" routeLength="594.90" waitingTime="28.00" waitingCount="1" stopTime="0.00" timeLoss="44.58" rerouteNo="0" devices="tripinfo_F_car_V_B3B0.9 emissions_F_car_V_B3B0.9" vType="car" speedFactor="1.04" vaporized="">
        <emissions CO_abs="8230.666649" CO2_abs="286907.070756" HC_abs="44.097209" PMx_abs="5.735257" NOx_abs="121.540651" fuel_abs="91511.825388" electricity_abs="0"/>
    </tripinfo>
    <tripinfo id="F_car_V_B3B0.10" depart="150.00" departLane="B3B2_0" departPos="5.10" departSpeed="0.00" departDelay="0.00" arrival="225.00" arrivalLane="B1B0_0" arrivalPos="200.00" arrivalSpeed="11.58" duration="75.00" routeLength="594.90" waitingTime="14.00" waitingCount="1" stopTime="0.00" timeLoss="27.43" rerouteNo="0" devices="tripinfo_F_car_V_B3B0.10 emissions_F_car_V_B3B0.10" vType="car" speedFactor="0.90" vaporized="">
        <emissions CO_abs="5222.824658" CO2_abs="208444.120063" HC_abs="28.564906" PMx_abs="3.713580" NOx_abs="85.461000" fuel_abs="66485.336561" electricity_abs="0"/>
    </tripinfo>
    <tripinfo id="F_car_V_B3B0.11" depart="165.00" departLane="B3B2_0" departPos="5.10" departSpeed="0.00" departDelay="0.00" arrival="227.00" arrivalLane="B1B0_0" arrivalPos="200.00" arrivalSpeed="13.20" duration="62.00" routeLength="594.90" waitingTime="2.00" waitingCount="1" stopTime="0.00" timeLoss="18.80" rerouteNo="0" devices="tripinfo_F_car_V_B3B0.11 emissions_F_car_V_B3B0.11" vType="car" speedFactor="1.17" vaporized="">
        <emissions CO_abs="3560.137393" CO2_abs="202017.505803" HC_abs="20.917571" PMx_abs="3.595869" NOx_abs="82.751677" fuel_abs="64434.555178" electricity_abs="0"/>
    </tripinfo>
    <tripinfo id="F_car_H_A0D0.12" depart="180.00" departLane="A0B0_0" departPos="5.10" departSpeed="0.00" departDelay="0.00" arrival="228.00" arrivalLane="C0D0_0" arrivalPos="200.00" arrivalSpeed="12.68" duration="48.00" routeLength="594.90" waitingTime="0.00" waitingCount="0" stopTime="0.00" timeLoss="4.83" rerouteNo="0" devices="tripinfo_F_car_H_A0D0.12 emissions_F_car_H_A0D0.12" vType="car" speedFactor="1.02" vaporized="">