<?xml version="1.0" encoding="UTF-8"?>

<!-- generated on 2025-10-08 00:52:40 by Eclipse SUMO GUI Version 1.24.0
<sumoConfiguration xmlns:xsi="http://www.w3.org/2001/XMLSchema-instance" xsi:noNamespaceSchemaLocation="http://sumo.dlr.de/xsd/sumoConfiguration.xsd">

    <input>
        <net-file value="scenarios/from_api/api.net.xml"/>
        <route-files value="scenarios/from_api/api.rou.xml"/>
    </input>

    <output>
        <emission-output value="scenarios/from_api/emissions.xml"/>
        <queue-output value="scenarios/from_api/queueinfo.xml"/>
        <tripinfo-output value="scenarios/from_api/tripinfo.xml"/>
    </output>

    <processing>
        <time-to-teleport value="-1"/>
    </processing>

    <report>
        <log value="logs/sumo_simulation.log"/>
    </report>

    <traci_server>
        <remote-port value="8813"/>
    </traci_server>

</sumoConfiguration>
-->

<queue-export xmlns:xsi="http://www.w3.org/2001/XMLSchema-instance" xsi:noNamespaceSchemaLocation="http://sumo.dlr.de/xsd/queue_file.xsd">
    <data timestep="0.00">
        <lanes/>
    </data>
    <data timestep="1.00">
        <lanes/>
    </data>
    <data timestep="2.00">
        <lanes/>
    </data>
    <data timestep="3.00">
        <lanes/>
    </data>
    <data timestep="4.00">
        <lanes/>
    </data>
    <data timestep="5.00">
        <lanes/>
    </data>
    <data timestep="6.00">
        <lanes/>
    </data>
    <data timestep="7.00">
        <lanes/>
    </data>
    <data timestep="8.00">
        <lanes/>
    </data>
    <data timestep="9.00">
        <lanes/>
    </data>
    <data timestep="10.00">
        <lanes/>
    </data>
    <data timestep="11.00">
        <lanes/>
    </data>
    <data timestep="12.00">
        <lanes/>
    </data>
    <data timestep="13.00">
        <lanes/>
    </data>
    <data timestep="14.00">
        <lanes/>
    </data>
    <data timestep="15.00">
        <lanes/>
    </data>
    <data timestep="16.00">
        <lanes/>
    </data>
    <data timestep="17.00">
        <lanes/>
    </data>
    <data timestep="18.00">
        <lanes/>
    </data>
    <data timestep="19.00">
        <lanes/>
    </data>
    <data timestep="20.00">
        <lanes/>
    </data>
    <data timestep="21.00">
        <lanes/>
    </data>
    <data timestep="22.00">
        <lanes/>
    </data>
    <data timestep="23.00">
        <lanes/>
    </data>
    <data timestep="24.00">
        <lanes/>
    </data>
    <data timestep="25.00">
        <lanes/>
    </data>
    <data timestep="26.00">
        <lanes/>
    </data>
    <data timestep="27.00">
        <lanes/>
    </data>
    <data timestep="28.00">
        <lanes/>
    </data>
    <data timestep="29.00">
        <lanes/>
    </data>
    <data timestep="30.00">
        <lanes/>
    </data>
    <data timestep="31.00">
        <lanes/>
    </data>
    <data timestep="32.00">
        <lanes/>
    </data>
    <data timestep="33.00">
        <lanes/>
    </data>
    <data timestep="34.00">
        <lanes/>
    </data>
    <data timestep="35.00">
        <lanes/>
    </data>
    <data timestep="36.00">
        <lanes/>
    </data>
    <data timestep="37.00">
        <lanes/>
    </data>
    <data timestep="38.00">
        <lanes/>
    </data>
    <data timestep="39.00">
        <lanes/>
    </data>
    <data timestep="40.00">
        <lanes/>
    </data>
    <data timestep="41.00">
        <lanes/>
    </data>
    <data timestep="42.00">
        <lanes/>
    </data>
    <data timestep="43.00">
        <lanes/>
    </data>
    <data timestep="44.00">
        <lanes>
            <lane id="1155175503443789502_0" queueing_time="0.00" queueing_length="0.00" queueing_length_experimental="5.00"/>
        </lanes>
    </data>
    <data timestep="45.00">
        <lanes/>
    </data>
    <data timestep="46.00">
        <lanes/>
    </data>
    <data timestep="47.00">
        <lanes/>
    </data>
    <data timestep="48.00">
        <lanes/>
    </data>
    <data timestep="49.00">
        <lanes/>
    </data>
    <data timestep="50.00">
        <lanes/>
    </data>
    <data timestep="51.00">
        <lanes/>
    </data>
    <data timestep="52.00">
        <lanes/>
    </data>
    <data timestep="53.00">
        <lanes/>
    </data>
    <data timestep="54.00">
        <lanes/>
    </data>
    <data timestep="55.00">
        <lanes/>
    </data>
    <data timestep="56.00">
        <lanes>
            <lane id="1152923703630103998_0" queueing_time="0.00" queueing_length="0.00" queueing_length_experimental="5.25"/>
        </lanes>
    </data>
    <data timestep="57.00">
        <lanes/>
    </data>
    <data timestep="58.00">
        <lanes/>
    </data>
    <data timestep="59.00">
        <lanes/>
    </data>
    <data timestep="60.00">
        <lanes>
            <lane id="1155175503443789726_0" queueing_time="0.00" queueing_length="0.00" queueing_length_experimental="5.16"/>
        </lanes>
    </data>
    <data timestep="61.00">
        <lanes/>
    </data>
    <data timestep="62.00">
        <lanes/>
    </data>
    <data timestep="63.00">
        <lanes/>
    </data>
    <data timestep="64.00">
        <lanes>
            <lane id="1157427303257474769_0" queueing_time="0.00" queueing_length="0.00" queueing_length_experimental="5.00"/>
        </lanes>
    </data>
    <data timestep="65.00">
        <lanes>
            <lane id="1157427303257474769_0" queueing_time="1.00" queueing_length="5.00" queueing_length_experimental="5.00"/>
        </lanes>
    </data>
    <data timestep="66.00">
        <lanes/>
    </data>
    <data timestep="67.00">
        <lanes/>
    </data>
    <data timestep="68.00">
        <lanes/>
    </data>
    <data timestep="69.00">
        <lanes/>
    </data>
    <data timestep="70.00">
        <lanes/>
    </data>
    <data timestep="71.00">
        <lanes/>
    </data>
    <data timestep="72.00">
        <lanes/>
    </data>
    <data timestep="73.00">
        <lanes/>
    </data>
    <data timestep="74.00">
        <lanes/>
    </data>
    <data timestep="75.00">
        <lanes/>
    </data>
    <data timestep="76.00">
        <lanes/>
    </data>
    <data timestep="77.00">
        <lanes/>
    </data>
    <data timestep="78.00">
        <lanes/>
    </data>
    <data timestep="79.00">
        <lanes>
            <lane id="1152923703630104551_0" queueing_time="0.00" queueing_length="0.00" queueing_length_experimental="5.54"/>
        </lanes>
    </data>
    <data timestep="80.00">
        <lanes>
            <lane id="1152923703630104551_0" queueing_time="0.00" queueing_length="0.00" queueing_length_experimental="5.13"/>
        </lanes>
    </data>
    <data timestep="81.00">
        <lanes/>
    </data>
    <data timestep="82.00">
        <lanes/>
    </data>
    <data timestep="83.00">
        <lanes/>
    </data>
    <data timestep="84.00">
        <lanes>
            <lane id="1152923703630104791_0" queueing_time="0.00" queueing_length="0.00" queueing_length_experimental="15.45"/>
        </lanes>
    </data>
    <data timestep="85.00">
        <lanes/>
    </data>
    <data timestep="86.00">
        <lanes/>
    </data>
    <data timestep="87.00">
        <lanes>
            <lane id="1152923703630104791_0" queueing_time="0.00" queueing_length="0.00" queueing_length_experimental="15.45"/>
        </lanes>
    </data>
    <data timestep="88.00">
        <lanes/>
    </data>
    <data timestep="89.00">
        <lanes/>
    </data>
    <data timestep="90.00">
        <lanes/>
    </data>
    <data timestep="91.00">
        <lanes/>
    </data>
    <data timestep="92.00">
        <lanes/>
    </data>
    <data timestep="93.00">
        <lanes/>
    </data>
    <data timestep="94.00">
        <lanes/>
    </data>
    <data timestep="95.00">
        <lanes/>
    </data>
    <data timestep="96.00">
        <lanes>
            <lane id="1152923703630104797_0" queueing_time="0.00" queueing_length="0.00" queueing_length_experimental="7.45"/>
        </lanes>
    </data>
    <data timestep="97.00">
        <lanes/>
    </data>
    <data timestep="98.00">
        <lanes/>
    </data>
    <data timestep="99.00">
        <lanes/>
    </data>
    <data timestep="100.00">
        <lanes>
            <lane id="1152923703630103937_0" queueing_time="0.00" queueing_length="0.00" queueing_length_experimental="5.00"/>
        </lanes>
    </data>
    <data timestep="101.00">
        <lanes/>
    </data>
    <data timestep="102.00">
        <lanes/>
    </data>
    <data timestep="103.00">
        <lanes/>
    </data>
    <data timestep="104.00">
        <lanes/>
    </data>
    <data timestep="105.00">
        <lanes/>
    </data>
    <data timestep="106.00">
        <lanes/>
    </data>
    <data timestep="107.00">
        <lanes/>
    </data>
    <data timestep="108.00">
        <lanes/>
    </data>
    <data timestep="109.00">
        <lanes/>
    </data>
    <data timestep="110.00">
        <lanes/>
    </data>
    <data timestep="111.00">
        <lanes/>
    </data>
    <data timestep="112.00">
        <lanes/>
    </data>
    <data timestep="113.00">
        <lanes/>
    </data>
    <data timestep="114.00">
        <lanes>
            <lane id="1152923703630104478_0" queueing_time="0.00" queueing_length="0.00" queueing_length_experimental="5.00"/>
        </lanes>
    </data>
    <data timestep="115.00">
        <lanes/>
    </data>
    <data timestep="116.00">
        <lanes/>
    </data>
    <data timestep="117.00">
        <lanes/>
    </data>
    <data timestep="118.00">
        <lanes/>
    </data>
    <data timestep="119.00">
        <lanes/>
    </data>
    <data timestep="120.00">
        <lanes/>
    </data>
    <data timestep="121.00">
        <lanes/>
    </data>
    <data timestep="122.00">
        <lanes/>
    </data>
    <data timestep="123.00">
        <lanes>
            <lane id="1152923703630104551_0" queueing_time="0.00" queueing_length="0.00" queueing_length_experimental="5.25"/>
            <lane id="1152923703630104664_0" queueing_time="0.00" queueing_length="0.00" queueing_length_experimental="5.32"/>
        </lanes>
    </data>
    <data timestep="124.00">
        <lanes>
            <lane id="1152923703630104664_0" queueing_time="0.00" queueing_length="0.00" queueing_length_experimental="5.13"/>
        </lanes>
    </data>
    <data timestep="125.00">
        <lanes>
            <lane id="1152923703630104664_0" queueing_time="0.00" queueing_length="0.00" queueing_length_experimental="12.74"/>
        </lanes>
    </data>
    <data timestep="126.00">
        <lanes/>
    </data>
    <data timestep="127.00">
        <lanes/>
    </data>
    <data timestep="128.00">
        <lanes/>
    </data>
    <data timestep="129.00">
        <lanes/>
    </data>
    <data timestep="130.00">
        <lanes/>
    </data>
    <data timestep="131.00">
        <lanes>
            <lane id="1152923703630104797_0" queueing_time="0.00" queueing_length="0.00" queueing_length_experimental="7.45"/>
        </lanes>
    </data>
    <data timestep="132.00">
        <lanes/>
    </data>
    <data timestep="133.00">
        <lanes/>
    </data>
    <data timestep="134.00">
        <lanes/>
    </data>
    <data timestep="135.00">
        <lanes>
            <lane id=":1745_1_0" queueing_time="0.00" queueing_length="0.00" queueing_length_experimental="5.66"/>
        </lanes>
    </data>
    <data timestep="136.00">
        <lanes>
            <lane id=":1745_1_0" queueing_time="0.00" queueing_length="0.00" queueing_length_experimental="5.14"/>
        </lanes>
    </data>
    <data timestep="137.00">
        <lanes>
            <lane id=":1745_1_0" queueing_time="1.00" queueing_length="5.12" queueing_length_experimental="5.12"/>
        </lanes>
    </data>
    <data timestep="138.00">
        <lanes>
            <lane id=":1745_1_0" queueing_time="2.00" queueing_length="5.11" queueing_length_experimental="5.11"/>
            <lane id="1152923703630104405_0" queueing_time="0.00" queueing_length="0.00" queueing_length_experimental="6.11"/>
        </lanes>
    </data>
    <data timestep="139.00">
        <lanes>
            <lane id=":1745_1_0" queueing_time="3.00" queueing_length="5.10" queueing_length_experimental="5.10"/>
            <lane id="1152923703630104405_0" queueing_time="1.00" queueing_length="6.04" queueing_length_experimental="6.04"/>
        </lanes>
    </data>
    <data timestep="140.00">
        <lanes>
            <lane id=":1745_1_0" queueing_time="4.00" queueing_length="5.10" queueing_length_experimental="5.10"/>
            <lane id="1152923703630104405_0" queueing_time="2.00" queueing_length="6.02" queueing_length_experimental="6.02"/>
        </lanes>
    </data>
    <data timestep="141.00">
        <lanes>
            <lane id=":1745_1_0" queueing_time="5.00" queueing_length="5.10" queueing_length_experimental="5.10"/>
            <lane id="1152923703630104405_0" queueing_time="3.00" queueing_length="6.00" queueing_length_experimental="6.00"/>
        </lanes>
    </data>
    <data timestep="142.00">
        <lanes>
            <lane id=":1745_1_0" queueing_time="6.00" queueing_length="5.10" queueing_length_experimental="5.10"/>
            <lane id="1152923703630104405_0" queueing_time="4.00" queueing_length="6.00" queueing_length_experimental="6.00"/>
        </lanes>
    </data>
    <data timestep="143.00">
        <lanes>
            <lane id=":1745_1_0" queueing_time="7.00" queueing_length="5.10" queueing_length_experimental="5.10"/>
            <lane id="1152923703630104405_0" queueing_time="5.00" queueing_length="6.00" queueing_length_experimental="6.00"/>
        </lanes>
    </data>
    <data timestep="144.00">
        <lanes>
            <lane id=":1745_1_0" queueing_time="8.00" queueing_length="5.10" queueing_length_experimental="5.10"/>
            <lane id="1152923703630104405_0" queueing_time="6.00" queueing_length="6.00" queueing_length_experimental="6.00"/>
        </lanes>
    </data>
    <data timestep="145.00">
        <lanes>
            <lane id=":1745_1_0" queueing_time="9.00" queueing_length="5.10" queueing_length_experimental="5.10"/>
            <lane id="1152923703630104405_0" queueing_time="7.00" queueing_length="6.00" queueing_length_experimental="6.00"/>
        </lanes>
    </data>
    <data timestep="146.00">
        <lanes>
            <lane id=":1745_1_0" queueing_time="10.00" queueing_length="5.10" queueing_length_experimental="5.10"/>
            <lane id="1152923703630104405_0" queueing_time="8.00" queueing_length="6.00" queueing_length_experimental="6.00"/>
        </lanes>
    </data>
    <data timestep="147.00">
        <lanes>
            <lane id=":1745_1_0" queueing_time="11.00" queueing_length="5.10" queueing_length_experimental="5.10"/>
            <lane id="1152923703630104405_0" queueing_time="9.00" queueing_length="6.00" queueing_length_experimental="6.00"/>
            <lane id="1152923703630104580_0" queueing_time="0.00" queueing_length="0.00" queueing_length_experimental="5.25"/>
        </lanes>
    </data>
    <data timestep="148.00">
        <lanes>
            <lane id=":1745_1_0" queueing_time="12.00" queueing_length="5.10" queueing_length_experimental="5.10"/>
            <lane id="1152923703630104405_0" queueing_time="10.00" queueing_length="6.00" queueing_length_experimental="6.00"/>
            <lane id="1152923703630104580_0" queueing_time="0.00" queueing_length="0.00" queueing_length_experimental="5.11"/>
        </lanes>
    </data>
    <data timestep="149.00">
        <lanes>
            <lane id=":1745_1_0" queueing_time="13.00" queueing_length="5.10" queueing_length_experimental="5.10"/>
            <lane id="1152923703630104405_0" queueing_time="11.00" queueing_length="6.00" queueing_length_experimental="6.00"/>
            <lane id="1152923703630104580_0" queueing_time="1.00" queueing_length="5.10" queueing_length_experimental="5.10"/>
        </lanes>
    </data>
    <data timestep="150.00">
        <lanes>
            <lane id="1152923703630104405_0" queueing_time="12.00" queueing_length="6.00" queueing_length_experimental="6.00"/>
            <lane id="1152923703630104580_0" queueing_time="2.00" queueing_length="5.10" queueing_length_experimental="5.10"/>
        </lanes>
    </data>
    <data timestep="151.00">
        <lanes>
            <lane id="1152923703630104405_0" queueing_time="13.00" queueing_length="6.00" queueing_length_experimental="6.00"/>
            <lane id="1152923703630104580_0" queueing_time="3.00" queueing_length="5.10" queueing_length_experimental="5.10"/>
        </lanes>
    </data>
    <data timestep="152.00">
        <lanes>
            <lane id="1152923703630104576_0" queueing_time="0.00" queueing_length="0.00" queueing_length_experimental="18.94"/>
            <lane id="1152923703630104580_0" queueing_time="4.00" queueing_length="5.10" queueing_length_experimental="5.10"/>
        </lanes>
    </data>
    <data timestep="153.00">
        <lanes>
            <lane id="1152923703630104580_0" queueing_time="5.00" queueing_length="5.10" queueing_length_experimental="5.10"/>
        </lanes>
    </data>
    <data timestep="154.00">
        <lanes/>
    </data>
    <data timestep="155.00">
        <lanes>
            <lane id="1152923703630104667_0" queueing_time="0.00" queueing_length="0.00" queueing_length_experimental="5.00"/>
        </lanes>
    </data>
    <data timestep="156.00">
        <lanes>
            <lane id="1152923703630104094_0" queueing_time="0.00" queueing_length="0.00" queueing_length_experimental="11.15"/>
        </lanes>
    </data>
    <data timestep="157.00">
        <lanes/>
    </data>
    <data timestep="158.00">
        <lanes/>
    </data>
    <data timestep="159.00">
        <lanes/>
    </data>
    <data timestep="160.00">
        <lanes>
            <lane id="1152923703630104791_0" queueing_time="0.00" queueing_length="0.00" queueing_length_experimental="15.45"/>
        </lanes>
    </data>
    <data timestep="161.00">
        <lanes>
            <lane id="1152923703630104580_0" queueing_time="1.00" queueing_length="5.14" queueing_length_experimental="5.14"/>
            <lane id="1152923703630104791_0" queueing_time="0.00" queueing_length="0.00" queueing_length_experimental="14.13"/>
        </lanes>
    </data>
    <data timestep="162.00">
        <lanes>
            <lane id="1152923703630104580_0" queueing_time="2.00" queueing_length="5.11" queueing_length_experimental="5.11"/>
            <lane id="1155175503443789726_0" queueing_time="0.00" queueing_length="0.00" queueing_length_experimental="5.35"/>
        </lanes>
    </data>
    <data timestep="163.00">
        <lanes>
            <lane id="1152923703630104580_0" queueing_time="3.00" queueing_length="5.10" queueing_length_experimental="5.10"/>
            <lane id="1155175503443789726_0" queueing_time="0.00" queueing_length="0.00" queueing_length_experimental="5.20"/>
        </lanes>
    </data>
    <data timestep="164.00">
        <lanes>
            <lane id="1152923703630104580_0" queueing_time="4.00" queueing_length="5.10" queueing_length_experimental="5.10"/>
            <lane id="1155175503443789726_0" queueing_time="1.00" queueing_length="5.12" queueing_length_experimental="5.12"/>
        </lanes>
    </data>
    <data timestep="165.00">
        <lanes>
            <lane id="1152923703630104580_0" queueing_time="5.00" queueing_length="5.10" queueing_length_experimental="5.10"/>
            <lane id="1155175503443789726_0" queueing_time="2.00" queueing_length="5.11" queueing_length_experimental="5.11"/>
        </lanes>
    </data>
    <data timestep="166.00">
        <lanes>
            <lane id="1152923703630104580_0" queueing_time="6.00" queueing_length="5.10" queueing_length_experimental="5.10"/>
            <lane id="1155175503443789726_0" queueing_time="3.00" queueing_length="5.10" queueing_length_experimental="5.10"/>
        </lanes>
    </data>
    <data timestep="167.00">
        <lanes>
            <lane id="1152923703630104580_0" queueing_time="7.00" queueing_length="5.10" queueing_length_experimental="12.83"/>
            <lane id="1155175503443789726_0" queueing_time="4.00" queueing_length="5.10" queueing_length_experimental="5.10"/>
        </lanes>
    </data>
    <data timestep="168.00">
        <lanes>
            <lane id="1152923703630104580_0" queueing_time="8.00" queueing_length="5.10" queueing_length_experimental="12.67"/>
        </lanes>
    </data>
    <data timestep="169.00">
        <lanes>
            <lane id="1152923703630104580_0" queueing_time="9.00" queueing_length="12.63" queueing_length_experimental="12.63"/>
        </lanes>
    </data>
    <data timestep="170.00">
        <lanes>
            <lane id="1152923703630104478_0" queueing_time="0.00" queueing_length="0.00" queueing_length_experimental="5.00"/>
            <lane id="1152923703630104580_0" queueing_time="10.00" queueing_length="12.61" queueing_length_experimental="12.61"/>
        </lanes>
    </data>
    <data timestep="171.00">
        <lanes>
            <lane id="1152923703630104580_0" queueing_time="11.00" queueing_length="12.60" queueing_length_experimental="12.60"/>
        </lanes>
    </data>
    <data timestep="172.00">
        <lanes>
            <lane id="1152923703630104580_0" queueing_time="12.00" queueing_length="12.60" queueing_length_experimental="12.60"/>
        </lanes>
    </data>
    <data timestep="173.00">
        <lanes>
            <lane id="1152923703630104580_0" queueing_time="13.00" queueing_length="12.60" queueing_length_experimental="12.60"/>
        </lanes>
    </data>
    <data timestep="174.00">
        <lanes>
            <lane id="1152923703630104580_0" queueing_time="14.00" queueing_length="12.60" queueing_length_experimental="12.60"/>
        </lanes>
    </data>
    <data timestep="175.00">
        <lanes>
            <lane id="1152923703630104580_0" queueing_time="15.00" queueing_length="12.60" queueing_length_experimental="12.60"/>
        </lanes>
    </data>
    <data timestep="176.00">
        <lanes>
            <lane id="1152923703630104580_0" queueing_time="16.00" queueing_length="20.11" queueing_length_experimental="12.60"/>
        </lanes>
    </data>
    <data timestep="177.00">
        <lanes>
            <lane id="1152923703630104580_0" queueing_time="17.00" queueing_length="20.11" queueing_length_experimental="12.60"/>
        </lanes>
    </data>
    <data timestep="178.00">
        <lanes>
            <lane id=":1950_1_0" queueing_time="0.00" queueing_length="0.00" queueing_length_experimental="5.77"/>
            <lane id="1152923703630104580_0" queueing_time="18.00" queueing_length="20.10" queueing_length_experimental="12.60"/>
        </lanes>
    </data>
    <data timestep="179.00">
        <lanes>
            <lane id=":1950_1_0" queueing_time="1.00" queueing_length="5.69" queueing_length_experimental="5.69"/>
            <lane id="1152923703630104580_0" queueing_time="19.00" queueing_length="20.10" queueing_length_experimental="12.60"/>
        </lanes>
    </data>
    <data timestep="180.00">
        <lanes>
            <lane id=":1950_1_0" queueing_time="2.00" queueing_length="5.65" queueing_length_experimental="5.65"/>
            <lane id="1152923703630104580_0" queueing_time="20.00" queueing_length="20.10" queueing_length_experimental="12.60"/>
        </lanes>
    </data>
    <data timestep="181.00">
        <lanes>
            <lane id=":1950_1_0" queueing_time="3.00" queueing_length="5.64" queueing_length_experimental="5.64"/>
            <lane id="1152923703630104460_0" queueing_time="0.00" queueing_length="0.00" queueing_length_experimental="5.55"/>
            <lane id="1152923703630104580_0" queueing_time="21.00" queueing_length="20.10" queueing_length_experimental="12.60"/>
        </lanes>
    </data>
    <data timestep="182.00">
        <lanes>
            <lane id=":1950_1_0" queueing_time="4.00" queueing_length="5.63" queueing_length_experimental="5.63"/>
            <lane id="1152923703630104460_0" queueing_time="1.00" queueing_length="5.47" queueing_length_experimental="13.27"/>
            <lane id="1152923703630104580_0" queueing_time="22.00" queueing_length="20.10" queueing_length_experimental="12.60"/>
            <lane id="1157427303257474370_0" queueing_time="0.00" queueing_length="0.00" queueing_length_experimental="5.17"/>
        </lanes>
    </data>
    <data timestep="183.00">
        <lanes>
            <lane id=":1950_1_0" queueing_time="5.00" queueing_length="5.63" queueing_length_experimental="5.63"/>
            <lane id="1152923703630104460_0" queueing_time="2.00" queueing_length="5.44" queueing_length_experimental="13.09"/>
            <lane id="1152923703630104580_0" queueing_time="23.00" queueing_length="20.10" queueing_length_experimental="12.60"/>
        </lanes>
    </data>
    <data timestep="184.00">
        <lanes>
            <lane id=":1950_1_0" queueing_time="6.00" queueing_length="5.63" queueing_length_experimental="5.63"/>
            <lane id="1152923703630104460_0" queueing_time="3.00" queueing_length="13.01" queueing_length_experimental="13.01"/>
            <lane id="1152923703630104580_0" queueing_time="24.00" queueing_length="20.10" queueing_length_experimental="12.60"/>
        </lanes>
    </data>
    <data timestep="185.00">
        <lanes>
            <lane id=":1950_1_0" queueing_time="7.00" queueing_length="5.63" queueing_length_experimental="5.63"/>
            <lane id="1152923703630104460_0" queueing_time="4.00" queueing_length="12.96" queueing_length_experimental="12.96"/>
            <lane id="1152923703630104580_0" queueing_time="17.00" queueing_length="20.10" queueing_length_experimental="12.60"/>
        </lanes>
    </data>
    <data timestep="186.00">
        <lanes>
            <lane id=":1950_1_0" queueing_time="8.00" queueing_length="5.63" queueing_length_experimental="5.63"/>
            <lane id="1152923703630104460_0" queueing_time="5.00" queueing_length="12.94" queueing_length_experimental="12.94"/>
            <lane id="1152923703630104580_0" queueing_time="11.00" queueing_length="20.10" queueing_length_experimental="0.00"/>
        </lanes>
    </data>
    <data timestep="187.00">
        <lanes>
            <lane id=":1950_1_0" queueing_time="9.00" queueing_length="5.63" queueing_length_experimental="5.63"/>
            <lane id="1152923703630104274_0" queueing_time="0.00" queueing_length="0.00" queueing_length_experimental="6.82"/>
            <lane id="1152923703630104460_0" queueing_time="6.00" queueing_length="12.93" queueing_length_experimental="12.93"/>
            <lane id="1152923703630104580_0" queueing_time="0.00" queueing_length="0.00" queueing_length_experimental="19.30"/>
        </lanes>
    </data>
    <data timestep="188.00">
        <lanes>
            <lane id=":1950_1_0" queueing_time="10.00" queueing_length="5.63" queueing_length_experimental="5.63"/>
            <lane id="1152923703630104460_0" queueing_time="7.00" queueing_length="12.93" queueing_length_experimental="12.93"/>
        </lanes>
    </data>
    <data timestep="189.00">
        <lanes>
            <lane id=":1950_1_0" queueing_time="11.00" queueing_length="5.63" queueing_length_experimental="5.63"/>
            <lane id="1152923703630104460_0" queueing_time="8.00" queueing_length="12.93" queueing_length_experimental="12.93"/>
            <lane id="1152923703630104551_0" queueing_time="0.00" queueing_length="0.00" queueing_length_experimental="5.23"/>
            <lane id="1152923703630104580_0" queueing_time="0.00" queueing_length="0.00" queueing_length_experimental="5.67"/>
        </lanes>
    </data>
    <data timestep="190.00">
        <lanes>
            <lane id=":1950_1_0" queueing_time="12.00" queueing_length="5.63" queueing_length_experimental="5.63"/>
            <lane id="1152923703630104460_0" queueing_time="9.00" queueing_length="12.93" queueing_length_experimental="12.93"/>
            <lane id="1152923703630104551_0" queueing_time="0.00" queueing_length="0.00" queueing_length_experimental="5.10"/>
            <lane id="1152923703630104580_0" queueing_time="0.00" queueing_length="0.00" queueing_length_experimental="13.25"/>
        </lanes>
    </data>
    <data timestep="191.00">
        <lanes>
            <lane id=":1950_1_0" queueing_time="13.00" queueing_length="5.63" queueing_length_experimental="5.63"/>
            <lane id=":cluster_1723_1842_1_0" queueing_time="1.00" queueing_length="5.10" queueing_length_experimental="5.10"/>
            <lane id="1152923703630104460_0" queueing_time="10.00" queueing_length="12.93" queueing_length_experimental="12.93"/>
            <lane id="1152923703630104551_0" queueing_time="1.00" queueing_length="5.10" queueing_length_experimental="5.10"/>
            <lane id="1152923703630104580_0" queueing_time="1.00" queueing_length="5.11" queueing_length_experimental="12.81"/>
        </lanes>
    </data>
    <data timestep="192.00">
        <lanes>
            <lane id=":1950_1_0" queueing_time="14.00" queueing_length="5.63" queueing_length_experimental="5.63"/>
            <lane id=":cluster_1723_1842_1_0" queueing_time="2.00" queueing_length="5.10" queueing_length_experimental="5.10"/>
            <lane id="1152923703630104460_0" queueing_time="11.00" queueing_length="12.93" queueing_length_experimental="12.93"/>
            <lane id="1152923703630104551_0" queueing_time="0.00" queueing_length="0.00" queueing_length_experimental="12.64"/>
            <lane id="1152923703630104580_0" queueing_time="2.00" queueing_length="5.10" queueing_length_experimental="12.68"/>
        </lanes>
    </data>
    <data timestep="193.00">
        <lanes>
            <lane id=":1950_1_0" queueing_time="15.00" queueing_length="5.63" queueing_length_experimental="5.63"/>
            <lane id=":cluster_1723_1842_1_0" queueing_time="3.00" queueing_length="5.10" queueing_length_experimental="5.10"/>