<?xml version="1.0" encoding="UTF-8"?>

<!-- generated on 2025-09-23 01:14:02 by Eclipse SUMO GUI Version 1.24.0
<sumoConfiguration xmlns:xsi="http://www.w3.org/2001/XMLSchema-instance" xsi:noNamespaceSchemaLocation="http://sumo.dlr.de/xsd/sumoConfiguration.xsd">

    <input>
        <net-file value="api.net.xml"/>
        <route-files value="traffic/api.rou.xml"/>
    </input>

    <output>
        <tripinfo-output value="tripinfo.xml"/>
    </output>

    <time>
        <begin value="4441"/>
    </time>

    <report>
        <log value="/media/pereira/BKP_EXT/TCC_SUMO/logs/sumo_output.log"/>
    </report>

    <traci_server>
        <remote-port value="8813"/>
    </traci_server>

</sumoConfiguration>
-->

<tripinfos xmlns:xsi="http://www.w3.org/2001/XMLSchema-instance" xsi:noNamespaceSchemaLocation="http://sumo.dlr.de/xsd/tripinfo_file.xsd">
</tripinfos>
