<?xml version="1.0" encoding="UTF-8"?>

<!-- generated on 2025-10-08 00:52:40 by Eclipse SUMO GUI Version 1.24.0
<sumoConfiguration xmlns:xsi="http://www.w3.org/2001/XMLSchema-instance" xsi:noNamespaceSchemaLocation="http://sumo.dlr.de/xsd/sumoConfiguration.xsd">

    <input>
        <net-file value="scenarios/from_api/api.net.xml"/>
        <route-files value="scenarios/from_api/api.rou.xml"/>
    </input>

    <output>
        <emission-output value="scenarios/from_api/emissions.xml"/>
        <queue-output value="scenarios/from_api/queueinfo.xml"/>
        <tripinfo-output value="scenarios/from_api/tripinfo.xml"/>
    </output>

    <processing>
        <time-to-teleport value="-1"/>
    </processing>

    <report>
        <log value="logs/sumo_simulation.log"/>
    </report>

    <traci_server>
        <remote-port value="8813"/>
    </traci_server>

</sumoConfiguration>
-->

<tripinfos xmlns:xsi="http://www.w3.org/2001/XMLSchema-instance" xsi:noNamespaceSchemaLocation="http://sumo.dlr.de/xsd/tripinfo_file.xsd">
    <tripinfo id="13" depart="10.00" departLane="1152923703630103926_0" departPos="5.10" departSpeed="0.00" departDelay="0.64" arrival="30.00" arrivalLane="1152923703630103924_0" arrivalPos="21.17" arrivalSpeed="13.25" duration="20.00" routeLength="188.41" waitingTime="0.00" waitingCount="0" stopTime="0.00" timeLoss="6.59" rerouteNo="0" devices="tripinfo_13 emissions_13" vType="DEFAULT_VEHTYPE" speedFactor="1.03" vaporized="">
        <emissions CO_abs="514.99" CO2_abs="87097.52" HC_abs="3.40" PMx_abs="5.27" NOx_abs="27.92" fuel_abs="28235.56" electricity_abs="0.00"/>
    </tripinfo>
    <tripinfo id="34" depart="25.00" departLane="1152923703630104304_0" departPos="5.10" departSpeed="0.00" departDelay="0.52" arrival="56.00" arrivalLane="1152923703630104335_0" arrivalPos="89.27" arrivalSpeed="11.83" duration="31.00" routeLength="309.09" waitingTime="0.00" waitingCount="0" stopTime="0.00" timeLoss="6.47" rerouteNo="0" devices="tripinfo_34 emissions_34" vType="DEFAULT_VEHTYPE" speedFactor="0.94" vaporized="">
        <emissions CO_abs="444.34" CO2_abs="89737.31" HC_abs="2.95" PMx_abs="7.16" NOx_abs="29.25" fuel_abs="29091.48" electricity_abs="0.00"/>
    </tripinfo>
    <tripinfo id="35" depart="26.00" departLane="1152923703630104171_0" departPos="5.10" departSpeed="0.00" departDelay="0.80" arrival="58.00" arrivalLane="1159679103071160020_0" arrivalPos="125.13" arrivalSpeed="11.86" duration="32.00" routeLength="286.82" waitingTime="0.00" waitingCount="0" stopTime="0.00" timeLoss="6.70" rerouteNo="0" devices="tripinfo_35 emissions_35" vType="DEFAULT_VEHTYPE" speedFactor="0.86" vaporized="">
        <emissions CO_abs="356.24" CO2_abs="83937.17" HC_abs="2.36" PMx_abs="6.21" NOx_abs="27.03" fuel_abs="27211.16" electricity_abs="0.00"/>
    </tripinfo>
    <tripinfo id="29" depart="21.00" departLane="1152923703630104052_0" departPos="5.10" departSpeed="0.00" departDelay="0.12" arrival="61.00" arrivalLane="1152923703630104678_0" arrivalPos="94.63" arrivalSpeed="13.76" duration="40.00" routeLength="470.33" waitingTime="0.00" waitingCount="0" stopTime="0.00" timeLoss="7.10" rerouteNo="0" devices="tripinfo_29 emissions_29" vType="DEFAULT_VEHTYPE" speedFactor="1.05" vaporized="">
        <emissions CO_abs="812.10" CO2_abs="127469.00" HC_abs="5.40" PMx_abs="10.90" NOx_abs="43.22" fuel_abs="41323.53" electricity_abs="0.00"/>
    </tripinfo>
    <tripinfo id="33" depart="24.00" departLane="1152923703630104199_0" departPos="5.10" departSpeed="0.00" departDelay="0.24" arrival="76.00" arrivalLane="1152923703630103755_0" arrivalPos="77.39" arrivalSpeed="11.94" duration="52.00" routeLength="530.43" waitingTime="0.00" waitingCount="0" stopTime="0.00" timeLoss="7.68" rerouteNo="0" devices="tripinfo_33 emissions_33" vType="DEFAULT_VEHTYPE" speedFactor="0.89" vaporized="">
        <emissions CO_abs="671.17" CO2_abs="135434.11" HC_abs="4.46" PMx_abs="11.26" NOx_abs="44.45" fuel_abs="43905.75" electricity_abs="0.00"/>
    </tripinfo>
    <tripinfo id="42" depart="31.00" departLane="1152923703630104454_0" departPos="5.10" departSpeed="0.00" departDelay="0.76" arrival="85.00" arrivalLane="1152923703630104276_0" arrivalPos="95.74" arrivalSpeed="15.14" duration="54.00" routeLength="522.76" waitingTime="0.00" waitingCount="0" stopTime="0.00" timeLoss="16.93" rerouteNo="0" devices="tripinfo_42 emissions_42" vType="DEFAULT_VEHTYPE" speedFactor="1.09" vaporized="">
        <emissions CO_abs="1335.78" CO2_abs="211118.84" HC_abs="8.83" PMx_abs="12.88" NOx_abs="68.52" fuel_abs="68441.20" electricity_abs="0.00"/>
    </tripinfo>
    <tripinfo id="9" depart="7.00" departLane="1155175503443789926_0" departPos="5.10" departSpeed="0.00" departDelay="0.52" arrival="86.00" arrivalLane="1152923703630103728_0" arrivalPos="151.52" arrivalSpeed="13.89" duration="79.00" routeLength="893.42" waitingTime="0.00" waitingCount="0" stopTime="0.00" timeLoss="17.74" rerouteNo="0" devices="tripinfo_9 emissions_9" vType="DEFAULT_VEHTYPE" speedFactor="1.08" vaporized="">
        <emissions CO_abs="1612.09" CO2_abs="243358.29" HC_abs="10.70" PMx_abs="19.32" NOx_abs="81.73" fuel_abs="78893.00" electricity_abs="0.00"/>
    </tripinfo>
    <tripinfo id="93" depart="67.00" departLane="1157427303257474772_0" departPos="5.10" departSpeed="0.00" departDelay="0.04" arrival="94.00" arrivalLane="1152923703630104328_0" arrivalPos="16.32" arrivalSpeed="11.99" duration="27.00" routeLength="255.59" waitingTime="0.00" waitingCount="0" stopTime="0.00" timeLoss="4.99" rerouteNo="0" devices="tripinfo_93 emissions_93" vType="DEFAULT_VEHTYPE" speedFactor="0.87" vaporized="">
        <emissions CO_abs="394.90" CO2_abs="80713.04" HC_abs="2.62" PMx_abs="6.04" NOx_abs="26.14" fuel_abs="26165.93" electricity_abs="0.00"/>
    </tripinfo>
    <tripinfo id="4" depart="3.00" departLane="1152923703630104629_0" departPos="5.10" departSpeed="0.00" departDelay="0.12" arrival="107.00" arrivalLane="1152923703630103751_0" arrivalPos="60.37" arrivalSpeed="12.78" duration="104.00" routeLength="1156.94" waitingTime="0.00" waitingCount="0" stopTime="0.00" timeLoss="13.03" rerouteNo="0" devices="tripinfo_4 emissions_4" vType="DEFAULT_VEHTYPE" speedFactor="0.94" vaporized="">
        <emissions CO_abs="1477.48" CO2_abs="269056.47" HC_abs="9.83" PMx_abs="25.45" NOx_abs="91.46" fuel_abs="87224.40" electricity_abs="0.00"/>
    </tripinfo>
    <tripinfo id="44" depart="32.00" departLane="1152923703630103926_0" departPos="5.10" departSpeed="0.00" departDelay="0.32" arrival="109.00" arrivalLane="1152923703630103870_0" arrivalPos="190.65" arrivalSpeed="12.99" duration="77.00" routeLength="854.88" waitingTime="0.00" waitingCount="0" stopTime="0.00" timeLoss="14.76" rerouteNo="0" devices="tripinfo_44 emissions_44" vType="DEFAULT_VEHTYPE" speedFactor="1.03" vaporized="">
        <emissions CO_abs="1357.44" CO2_abs="223680.02" HC_abs="9.02" PMx_abs="18.77" NOx_abs="75.41" fuel_abs="72513.75" electricity_abs="0.00"/>
    </tripinfo>
    <tripinfo id="67" depart="49.00" departLane="1152923703630103926_0" departPos="5.10" departSpeed="0.00" departDelay="0.76" arrival="112.00" arrivalLane="1155175503443789011_0" arrivalPos="99.12" arrivalSpeed="11.16" duration="63.00" routeLength="607.28" waitingTime="0.00" waitingCount="0" stopTime="0.00" timeLoss="11.60" rerouteNo="0" devices="tripinfo_67 emissions_67" vType="DEFAULT_VEHTYPE" speedFactor="0.88" vaporized="">
        <emissions CO_abs="805.99" CO2_abs="162152.46" HC_abs="5.34" PMx_abs="12.49" NOx_abs="53.19" fuel_abs="52567.44" electricity_abs="0.00"/>
    </tripinfo>
    <tripinfo id="102" depart="74.00" departLane="1152923703630104659_0" departPos="5.10" departSpeed="0.00" departDelay="0.56" arrival="113.00" arrivalLane="1152923703630104251_0" arrivalPos="183.78" arrivalSpeed="11.97" duration="39.00" routeLength="455.65" waitingTime="0.00" waitingCount="0" stopTime="0.00" timeLoss="4.35" rerouteNo="0" devices="tripinfo_102 emissions_102" vType="DEFAULT_VEHTYPE" speedFactor="0.95" vaporized="">
        <emissions CO_abs="514.04" CO2_abs="99097.53" HC_abs="3.43" PMx_abs="10.18" NOx_abs="33.60" fuel_abs="32126.05" electricity_abs="0.00"/>
    </tripinfo>
    <tripinfo id="79" depart="57.00" departLane="1152923703630104199_0" departPos="5.10" departSpeed="0.00" departDelay="0.12" arrival="124.00" arrivalLane="1152923703630104276_0" arrivalPos="95.74" arrivalSpeed="13.78" duration="67.00" routeLength="612.40" waitingTime="0.00" waitingCount="0" stopTime="0.00" timeLoss="19.17" rerouteNo="0" devices="tripinfo_79 emissions_79" vType="DEFAULT_VEHTYPE" speedFactor="1.01" vaporized="">
        <emissions CO_abs="1269.40" CO2_abs="225058.58" HC_abs="8.40" PMx_abs="15.22" NOx_abs="73.42" fuel_abs="72960.45" electricity_abs="0.00"/>
    </tripinfo>
    <tripinfo id="5" depart="4.00" departLane="1152923703630104171_0" departPos="5.10" departSpeed="0.00" departDelay="0.40" arrival="126.00" arrivalLane="1155175503443789012_0" arrivalPos="109.35" arrivalSpeed="12.92" duration="122.00" routeLength="1430.72" waitingTime="0.00" waitingCount="0" stopTime="0.00" timeLoss="17.52" rerouteNo="0" devices="tripinfo_5 emissions_5" vType="DEFAULT_VEHTYPE" speedFactor="1.01" vaporized="">
        <emissions CO_abs="1924.43" CO2_abs="320837.54" HC_abs="12.83" PMx_abs="30.85" NOx_abs="109.61" fuel_abs="104011.01" electricity_abs="0.00"/>
    </tripinfo>
    <tripinfo id="96" depart="70.00" departLane="1152923703630104216_0" departPos="5.10" departSpeed="0.00" departDelay="0.88" arrival="127.00" arrivalLane="1157427303257475076_0" arrivalPos="0.20" arrivalSpeed="5.12" duration="57.00" routeLength="563.64" waitingTime="0.00" waitingCount="0" stopTime="0.00" timeLoss="11.77" rerouteNo="0" devices="tripinfo_96 emissions_96" vType="DEFAULT_VEHTYPE" speedFactor="0.92" vaporized="">
        <emissions CO_abs="889.27" CO2_abs="160095.87" HC_abs="5.88" PMx_abs="11.47" NOx_abs="52.25" fuel_abs="51900.61" electricity_abs="0.00"/>
    </tripinfo>
    <tripinfo id="60" depart="44.00" departLane="1155175503443789502_0" departPos="2.14" departSpeed="0.00" departDelay="0.80" arrival="136.00" arrivalLane="1155175503443789090_0" arrivalPos="48.46" arrivalSpeed="14.38" duration="92.00" routeLength="1053.55" waitingTime="0.00" waitingCount="0" stopTime="0.00" timeLoss="22.79" rerouteNo="0" devices="tripinfo_60 emissions_60" vType="DEFAULT_VEHTYPE" speedFactor="1.12" vaporized="">
        <emissions CO_abs="2328.36" CO2_abs="329712.68" HC_abs="15.44" PMx_abs="25.06" NOx_abs="111.83" fuel_abs="106887.70" electricity_abs="0.00"/>
    </tripinfo>
    <tripinfo id="158" depart="114.00" departLane="1152923703630104478_0" departPos="0.37" departSpeed="0.00" departDelay="0.24" arrival="141.00" arrivalLane="1155175503443789447_0" arrivalPos="55.54" arrivalSpeed="14.55" duration="27.00" routeLength="216.17" waitingTime="0.00" waitingCount="0" stopTime="0.00" timeLoss="11.38" rerouteNo="0" devices="tripinfo_158 emissions_158" vType="DEFAULT_VEHTYPE" speedFactor="1.09" vaporized="">
        <emissions CO_abs="593.94" CO2_abs="105675.70" HC_abs="3.92" PMx_abs="6.02" NOx_abs="33.56" fuel_abs="34258.27" electricity_abs="0.00"/>
    </tripinfo>
    <tripinfo id="133" depart="96.00" departLane="1152923703630104797_0" departPos="5.10" departSpeed="0.00" departDelay="0.24" arrival="172.00" arrivalLane="6919783026478024694_0" arrivalPos="120.40" arrivalSpeed="13.07" duration="76.00" routeLength="803.17" waitingTime="0.00" waitingCount="0" stopTime="0.00" timeLoss="15.94" rerouteNo="0" devices="tripinfo_133 emissions_133" vType="DEFAULT_VEHTYPE" speedFactor="0.99" vaporized="">
        <emissions CO_abs="1048.48" CO2_abs="198043.02" HC_abs="6.98" PMx_abs="17.67" NOx_abs="66.10" fuel_abs="64202.71" electricity_abs="0.00"/>
    </tripinfo>
    <tripinfo id="106" depart="77.00" departLane="1152923703630104648_0" departPos="5.10" departSpeed="0.00" departDelay="0.68" arrival="174.00" arrivalLane="1152923703630104789_0" arrivalPos="530.54" arrivalSpeed="11.71" duration="97.00" routeLength="1076.56" waitingTime="0.00" waitingCount="0" stopTime="0.00" timeLoss="12.54" rerouteNo="0" devices="tripinfo_106 emissions_106" vType="DEFAULT_VEHTYPE" speedFactor="0.93" vaporized="">
        <emissions CO_abs="1272.94" CO2_abs="243010.16" HC_abs="8.48" PMx_abs="23.81" NOx_abs="82.48" fuel_abs="78780.60" electricity_abs="0.00"/>
    </tripinfo>
    <tripinfo id="105" depart="76.00" departLane="1152923703630104245_0" departPos="5.10" departSpeed="0.00" departDelay="0.40" arrival="178.00" arrivalLane="1155175503443790049_0" arrivalPos="35.63" arrivalSpeed="13.96" duration="102.00" routeLength="1331.66" waitingTime="0.00" waitingCount="0" stopTime="0.00" timeLoss="15.13" rerouteNo="0" devices="tripinfo_105 emissions_105" vType="DEFAULT_VEHTYPE" speedFactor="1.13" vaporized="">
        <emissions CO_abs="2375.39" CO2_abs="325174.56" HC_abs="15.82" PMx_abs="31.39" NOx_abs="113.62" fuel_abs="105416.84" electricity_abs="0.00"/>
    </tripinfo>
    <tripinfo id="150" depart="108.00" departLane="6919783026478024432_0" departPos="5.10" departSpeed="0.00" departDelay="0.00" arrival="184.00" arrivalLane="1155175503443789090_0" arrivalPos="48.46" arrivalSpeed="11.69" duration="76.00" routeLength="768.62" waitingTime="0.00" waitingCount="0" stopTime="0.00" timeLoss="12.24" rerouteNo="0" devices="tripinfo_150 emissions_150" vType="DEFAULT_VEHTYPE" speedFactor="0.90" vaporized="">
        <emissions CO_abs="987.52" CO2_abs="196645.18" HC_abs="6.56" PMx_abs="16.61" NOx_abs="65.19" fuel_abs="63749.55" electricity_abs="0.00"/>
    </tripinfo>
    <tripinfo id="192" depart="139.00" departLane="1152923703630104464_0" departPos="5.10" departSpeed="0.00" departDelay="0.76" arrival="185.00" arrivalLane="1152923703630104453_0" arrivalPos="138.10" arrivalSpeed="13.02" duration="46.00" routeLength="359.95" waitingTime="4.00" waitingCount="1" stopTime="0.00" timeLoss="19.30" rerouteNo="0" devices="tripinfo_192 emissions_192" vType="DEFAULT_VEHTYPE" speedFactor="1.02" vaporized="">
        <emissions CO_abs="699.67" CO2_abs="141532.81" HC_abs="4.64" PMx_abs="9.01" NOx_abs="46.98" fuel_abs="45882.77" electricity_abs="0.00"/>
    </tripinfo>
    <tripinfo id="2" depart="2.00" departLane="1155175503443789174_0" departPos="5.10" departSpeed="0.00" departDelay="0.56" arrival="188.00" arrivalLane="1155175503443789554_0" arrivalPos="66.99" arrivalSpeed="13.56" duration="186.00" routeLength="2164.80" waitingTime="0.00" waitingCount="0" stopTime="0.00" timeLoss="35.59" rerouteNo="0" devices="tripinfo_2 emissions_2" vType="DEFAULT_VEHTYPE" speedFactor="1.06" vaporized="">
        <emissions CO_abs="3641.81" CO2_abs="557918.26" HC_abs="24.21" PMx_abs="47.82" NOx_abs="190.02" fuel_abs="180868.88" electricity_abs="0.00"/>
    </tripinfo>
    <tripinfo id="22" depart="16.00" departLane="1152923703630103919_0" departPos="5.10" departSpeed="0.00" departDelay="0.16" arrival="189.00" arrivalLane="1152923703630104293_0" arrivalPos="38.26" arrivalSpeed="11.43" duration="173.00" routeLength="1699.92" waitingTime="0.00" waitingCount="0" stopTime="0.00" timeLoss="24.11" rerouteNo="0" devices="tripinfo_22 emissions_22" vType="DEFAULT_VEHTYPE" speedFactor="0.83" vaporized="">
        <emissions CO_abs="1610.86" CO2_abs="376005.66" HC_abs="10.72" PMx_abs="34.25" NOx_abs="124.91" fuel_abs="121895.96" electricity_abs="0.00"/>
    </tripinfo>
    <tripinfo id="148" depart="107.00" departLane="1152923703630104629_0" departPos="5.10" departSpeed="0.00" departDelay="0.44" arrival="189.00" arrivalLane="1152923703630103730_0" arrivalPos="48.67" arrivalSpeed="14.12" duration="82.00" routeLength="1016.11" waitingTime="0.00" waitingCount="0" stopTime="0.00" timeLoss="16.37" rerouteNo="0" devices="tripinfo_148 emissions_148" vType="DEFAULT_VEHTYPE" speedFactor="1.18" vaporized="">
        <emissions CO_abs="2128.94" CO2_abs="286252.16" HC_abs="14.15" PMx_abs="24.04" NOx_abs="99.31" fuel_abs="92798.58" electricity_abs="0.00"/>
    </tripinfo>
    <tripinfo id="224" depart="162.00" departLane="1157427303257474253_0" departPos="5.10" departSpeed="0.00" departDelay="0.72" arrival="190.00" arrivalLane="1155175503443789090_0" arrivalPos="48.46" arrivalSpeed="12.07" duration="28.00" routeLength="243.84" waitingTime="0.00" waitingCount="0" stopTime="0.00" timeLoss="7.66" rerouteNo="0" devices="tripinfo_224 emissions_224" vType="DEFAULT_VEHTYPE" speedFactor="0.91" vaporized="">
        <emissions CO_abs="444.76" CO2_abs="91401.76" HC_abs="2.94" PMx_abs="5.95" NOx_abs="28.74" fuel_abs="29630.96" electricity_abs="0.00"/>
    </tripinfo>
    <tripinfo id="199" depart="144.00" departLane="1152923703630104819_0" departPos="5.10" departSpeed="0.00" departDelay="0.72" arrival="197.00" arrivalLane="1152923703630104801_0" arrivalPos="31.68" arrivalSpeed="12.64" duration="53.00" routeLength="565.24" waitingTime="0.00" waitingCount="0" stopTime="0.00" timeLoss="10.71" rerouteNo="0" devices="tripinfo_199 emissions_199" vType="DEFAULT_VEHTYPE" speedFactor="1.00" vaporized="">
        <emissions CO_abs="1011.93" CO2_abs="171299.00" HC_abs="6.72" PMx_abs="13.51" NOx_abs="56.78" fuel_abs="55532.52" electricity_abs="0.00"/>
    </tripinfo>
    <tripinfo id="62" depart="48.00" departLane="1152923703630103693_0" departPos="5.10" departSpeed="0.00" departDelay="3.36" arrival="198.00" arrivalLane="1152923703630104618_0" arrivalPos="33.19" arrivalSpeed="13.49" duration="150.00" routeLength="1602.03" waitingTime="0.00" waitingCount="0" stopTime="0.00" timeLoss="29.97" rerouteNo="0" devices="tripinfo_62 emissions_62" vType="DEFAULT_VEHTYPE" speedFactor="0.99" vaporized="">
        <emissions CO_abs="2538.53" CO2_abs="435243.04" HC_abs="16.87" PMx_abs="36.30" NOx_abs="145.52" fuel_abs="141099.37" electricity_abs="0.00"/>
    </tripinfo>
    <tripinfo id="184" depart="133.00" departLane="1152923703630103693_0" departPos="5.10" departSpeed="0.00" departDelay="0.52" arrival="201.00" arrivalLane="1157427303257475076_0" arrivalPos="0.20" arrivalSpeed="4.86" duration="68.00" routeLength="454.83" waitingTime="15.00" waitingCount="1" stopTime="0.00" timeLoss="28.30" rerouteNo="0" devices="tripinfo_184 emissions_184" vType="DEFAULT_VEHTYPE" speedFactor="0.85" vaporized="">
        <emissions CO_abs="627.59" CO2_abs="166460.67" HC_abs="4.16" PMx_abs="10.46" NOx_abs="55.43" fuel_abs="53964.21" electricity_abs="0.00"/>
    </tripinfo>
    <tripinfo id="204" depart="147.00" departLane="1152923703630104812_0" departPos="5.10" departSpeed="0.00" departDelay="0.12" arrival="201.00" arrivalLane="1152923703630104641_0" arrivalPos="163.26" arrivalSpeed="15.16" duration="54.00" routeLength="657.65" waitingTime="0.00" waitingCount="0" stopTime="0.00" timeLoss="12.11" rerouteNo="0" devices="tripinfo_204 emissions_204" vType="DEFAULT_VEHTYPE" speedFactor="1.14" vaporized="">
        <emissions CO_abs="1338.71" CO2_abs="191101.18" HC_abs="8.89" PMx_abs="15.22" NOx_abs="64.69" fuel_abs="61952.01" electricity_abs="0.00"/>
    </tripinfo>
    <tripinfo id="163" depart="118.00" departLane="1152923703630104316_0" departPos="5.10" departSpeed="0.00" departDelay="0.64" arrival="203.00" arrivalLane="1157427303257475076_0" arrivalPos="0.20" arrivalSpeed="6.11" duration="85.00" routeLength="423.97" waitingTime="27.00" waitingCount="2" stopTime="0.00" timeLoss="53.27" rerouteNo="0" devices="tripinfo_163 emissions_163" vType="DEFAULT_VEHTYPE" speedFactor="1.04" vaporized="">
        <emissions CO_abs="656.96" CO2_abs="196692.52" HC_abs="4.34" PMx_abs="9.00" NOx_abs="64.69" fuel_abs="63764.91" electricity_abs="0.00"/>
    </tripinfo>
    <tripinfo id="245" depart="177.00" departLane="1152923703630104171_0" departPos="5.10" departSpeed="0.00" departDelay="0.60" arrival="203.00" arrivalLane="1152923703630104276_0" arrivalPos="95.74" arrivalSpeed="12.41" duration="26.00" routeLength="260.03" waitingTime="0.00" waitingCount="0" stopTime="0.00" timeLoss="5.23" rerouteNo="0" devices="tripinfo_245 emissions_245" vType="DEFAULT_VEHTYPE" speedFactor="0.96" vaporized="">
        <emissions CO_abs="422.26" CO2_abs="81037.33" HC_abs="2.80" PMx_abs="6.04" NOx_abs="26.25" fuel_abs="26271.03" electricity_abs="0.00"/>
    </tripinfo>
    <tripinfo id="118" depart="85.00" departLane="6919783026478024047_0" departPos="5.10" departSpeed="0.00" departDelay="0.04" arrival="206.00" arrivalLane="1152923703630104322_0" arrivalPos="40.43" arrivalSpeed="13.40" duration="121.00" routeLength="1413.69" waitingTime="0.00" waitingCount="0" stopTime="0.00" timeLoss="18.24" rerouteNo="0" devices="tripinfo_118 emissions_118" vType="DEFAULT_VEHTYPE" speedFactor="1.01" vaporized="">
        <emissions CO_abs="1861.96" CO2_abs="322312.18" HC_abs="12.41" PMx_abs="31.96" NOx_abs="110.01" fuel_abs="104489.16" electricity_abs="0.00"/>
    </tripinfo>
    <tripinfo id="149" depart="108.00" departLane="1152923703630103907_0" departPos="5.10" departSpeed="0.00" departDelay="0.72" arrival="207.00" arrivalLane="1157427303257474474_0" arrivalPos="25.92" arrivalSpeed="10.45" duration="99.00" routeLength="1206.27" waitingTime="0.00" waitingCount="0" stopTime="0.00" timeLoss="16.96" rerouteNo="0" devices="tripinfo_149 emissions_149" vType="DEFAULT_VEHTYPE" speedFactor="1.10" vaporized="">
        <emissions CO_abs="2075.59" CO2_abs="310169.22" HC_abs="13.81" PMx_abs="28.48" NOx_abs="106.67" fuel_abs="100552.34" electricity_abs="0.00"/>
    </tripinfo>
    <tripinfo id="57" depart="42.00" departLane="6919783026478024432_0" departPos="5.10" departSpeed="0.00" departDelay="0.96" arrival="208.00" arrivalLane="1157427303257474443_0" arrivalPos="110.33" arrivalSpeed="13.89" duration="166.00" routeLength="1895.80" waitingTime="0.00" waitingCount="0" stopTime="0.00" timeLoss="32.90" rerouteNo="0" devices="tripinfo_57 emissions_57" vType="DEFAULT_VEHTYPE" speedFactor="1.05" vaporized="">
        <emissions CO_abs="3070.04" CO2_abs="471916.60" HC_abs="20.38" PMx_abs="39.39" NOx_abs="160.70" fuel_abs="152988.41" electricity_abs="0.00"/>
    </tripinfo>
    <tripinfo id="76" depart="55.00" departLane="1152923703630104629_0" departPos="5.10" departSpeed="0.00" departDelay="0.28" arrival="209.00" arrivalLane="1155175503443789082_0" arrivalPos="28.40" arrivalSpeed="12.58" duration="154.00" routeLength="1712.32" waitingTime="0.00" waitingCount="0" stopTime="0.00" timeLoss="42.85" rerouteNo="0" devices="tripinfo_76 emissions_76" vType="DEFAULT_VEHTYPE" speedFactor="1.16" vaporized="">
        <emissions CO_abs="3183.35" CO2_abs="477129.72" HC_abs="21.11" PMx_abs="37.81" NOx_abs="162.90" fuel_abs="154678.32" electricity_abs="0.00"/>
    </tripinfo>
    <tripinfo id="210" depart="152.00" departLane="1152923703630104576_0" departPos="5.10" departSpeed="0.00" departDelay="0.80" arrival="209.00" arrivalLane="1155175503443789447_0" arrivalPos="55.54" arrivalSpeed="14.50" duration="57.00" routeLength="228.47" waitingTime="24.00" waitingCount="1" stopTime="0.00" timeLoss="40.47" rerouteNo="0" devices="tripinfo_210 emissions_210" vType="DEFAULT_VEHTYPE" speedFactor="1.08" vaporized="">
        <emissions CO_abs="575.05" CO2_abs="153472.29" HC_abs="3.79" PMx_abs="5.83" NOx_abs="51.33" fuel_abs="49753.37" electricity_abs="0.00"/>
    </tripinfo>
    <tripinfo id="80" depart="58.00" departLane="1152923703630103884_0" departPos="5.10" departSpeed="0.00" departDelay="0.40" arrival="215.00" arrivalLane="1155175503443789447_0" arrivalPos="55.54" arrivalSpeed="12.26" duration="157.00" routeLength="1465.56" waitingTime="19.00" waitingCount="2" stopTime="0.00" timeLoss="46.98" rerouteNo="0" devices="tripinfo_80 emissions_80" vType="DEFAULT_VEHTYPE" speedFactor="0.97" vaporized="">
        <emissions CO_abs="2115.17" CO2_abs="402345.32" HC_abs="14.07" PMx_abs="32.59" NOx_abs="136.93" fuel_abs="130434.76" electricity_abs="0.00"/>
    </tripinfo>
    <tripinfo id="116" depart="84.00" departLane="1152923703630104791_0" departPos="5.10" departSpeed="0.00" departDelay="0.48" arrival="217.00" arrivalLane="1155175503443789554_0" arrivalPos="66.99" arrivalSpeed="15.95" duration="133.00" routeLength="1543.93" waitingTime="0.00" waitingCount="0" stopTime="0.00" timeLoss="36.46" rerouteNo="0" devices="tripinfo_116 emissions_116" vType="DEFAULT_VEHTYPE" speedFactor="1.18" vaporized="">
        <emissions CO_abs="2647.70" CO2_abs="404641.35" HC_abs="17.60" PMx_abs="35.64" NOx_abs="138.62" fuel_abs="131178.81" electricity_abs="0.00"/>
    </tripinfo>
    <tripinfo id="117" depart="85.00" departLane="1152923703630104216_0" departPos="5.10" departSpeed="0.00" departDelay="0.76" arrival="217.00" arrivalLane="1152923703630103978_0" arrivalPos="0.20" arrivalSpeed="7.99" duration="132.00" routeLength="1634.62" waitingTime="0.00" waitingCount="0" stopTime="0.00" timeLoss="29.37" rerouteNo="0" devices="tripinfo_117 emissions_117" vType="DEFAULT_VEHTYPE" speedFactor="1.15" vaporized="">
        <emissions CO_abs="2815.93" CO2_abs="397127.11" HC_abs="18.73" PMx_abs="35.14" NOx_abs="137.33" fuel_abs="128742.62" electricity_abs="0.00"/>
    </tripinfo>
    <tripinfo id="72" depart="52.00" departLane="1152923703630104629_0" departPos="5.10" departSpeed="0.00" departDelay="0.16" arrival="219.00" arrivalLane="1152923703630104251_0" arrivalPos="183.78" arrivalSpeed="12.53" duration="167.00" routeLength="1774.07" waitingTime="1.00" waitingCount="1" stopTime="0.00" timeLoss="27.64" rerouteNo="0" devices="tripinfo_72 emissions_72" vType="DEFAULT_VEHTYPE" speedFactor="0.94" vaporized="">
        <emissions CO_abs="2063.96" CO2_abs="403682.83" HC_abs="13.76" PMx_abs="38.15" NOx_abs="136.50" fuel_abs="130868.39" electricity_abs="0.00"/>
    </tripinfo>
    <tripinfo id="269" depart="194.00" departLane="1155175503443789340_0" departPos="5.10" departSpeed="0.00" departDelay="0.32" arrival="221.00" arrivalLane="1152923703630103936_0" arrivalPos="10.14" arrivalSpeed="8.23" duration="27.00" routeLength="256.67" waitingTime="0.00" waitingCount="0" stopTime="0.00" timeLoss="8.12" rerouteNo="0" devices="tripinfo_269 emissions_269" vType="DEFAULT_VEHTYPE" speedFactor="1.03" vaporized="">
        <emissions CO_abs="529.87" CO2_abs="95529.32" HC_abs="3.51" PMx_abs="6.51" NOx_abs="31.10" fuel_abs="30969.09" electricity_abs="0.00"/>
    </tripinfo>
    <tripinfo id="138" depart="100.00" departLane="1152923703630103937_0" departPos="3.52" departSpeed="0.00" departDelay="0.64" arrival="224.00" arrivalLane="1155175503443789139_0" arrivalPos="19.79" arrivalSpeed="13.87" duration="124.00" routeLength="1293.29" waitingTime="4.00" waitingCount="1" stopTime="0.00" timeLoss="28.48" rerouteNo="0" devices="tripinfo_138 emissions_138" vType="DEFAULT_VEHTYPE" speedFactor="1.02" vaporized="">
        <emissions CO_abs="2124.79" CO2_abs="360586.75" HC_abs="14.11" PMx_abs="28.82" NOx_abs="120.75" fuel_abs="116896.85" electricity_abs="0.00"/>
    </tripinfo>
    <tripinfo id="168" depart="121.00" departLane="1152923703630104171_0" departPos="5.10" departSpeed="0.00" departDelay="0.04" arrival="225.00" arrivalLane="1157427303257474229_0" arrivalPos="82.37" arrivalSpeed="15.01" duration="104.00" routeLength="1189.08" waitingTime="0.00" waitingCount="0" stopTime="0.00" timeLoss="20.61" rerouteNo="0" devices="tripinfo_168 emissions_168" vType="DEFAULT_VEHTYPE" speedFactor="1.09" vaporized="">
        <emissions CO_abs="2384.18" CO2_abs="350023.44" HC_abs="15.83" PMx_abs="28.49" NOx_abs="119.55" fuel_abs="113472.32" electricity_abs="0.00"/>
    </tripinfo>
    <tripinfo id="203" depart="147.00" departLane="1152923703630103926_0" departPos="5.10" departSpeed="0.00" departDelay="0.84" arrival="229.00" arrivalLane="1155175503443789082_0" arrivalPos="28.40" arrivalSpeed="11.41" duration="82.00" routeLength="806.02" waitingTime="0.00" waitingCount="0" stopTime="0.00" timeLoss="14.76" rerouteNo="0" devices="tripinfo_203 emissions_203" vType="DEFAULT_VEHTYPE" speedFactor="0.90" vaporized="">
        <emissions CO_abs="1074.69" CO2_abs="216603.99" HC_abs="7.14" PMx_abs="18.12" NOx_abs="71.59" fuel_abs="70219.91" electricity_abs="0.00"/>
    </tripinfo>
    <tripinfo id="240" depart="173.00" departLane="1152923703630104441_0" departPos="5.10" departSpeed="0.00" departDelay="0.20" arrival="233.00" arrivalLane="1152923703630103728_0" arrivalPos="151.52" arrivalSpeed="12.76" duration="60.00" routeLength="605.65" waitingTime="0.00" waitingCount="0" stopTime="0.00" timeLoss="10.75" rerouteNo="0" devices="tripinfo_240 emissions_240" vType="DEFAULT_VEHTYPE" speedFactor="0.94" vaporized="">
        <emissions CO_abs="854.17" CO2_abs="168593.93" HC_abs="5.68" PMx_abs="14.00" NOx_abs="55.40" fuel_abs="54655.67" electricity_abs="0.00"/>
    </tripinfo>
    <tripinfo id="201" depart="145.00" departLane="1152923703630104659_0" departPos="5.10" departSpeed="0.00" departDelay="0.28" arrival="236.00" arrivalLane="1157427303257474792_0" arrivalPos="61.82" arrivalSpeed="13.55" duration="91.00" routeLength="1060.79" waitingTime="0.00" waitingCount="0" stopTime="0.00" timeLoss="11.87" rerouteNo="0" devices="tripinfo_201 emissions_201" vType="DEFAULT_VEHTYPE" speedFactor="1.00" vaporized="">
        <emissions CO_abs="1452.38" CO2_abs="248276.24" HC_abs="9.68" PMx_abs="24.32" NOx_abs="84.66" fuel_abs="80487.69" electricity_abs="0.00"/>
    </tripinfo>
    <tripinfo id="261" depart="188.00" departLane="1152923703630104819_0" departPos="5.10" departSpeed="0.00" departDelay="0.08" arrival="242.00" arrivalLane="1155175503443790049_0" arrivalPos="35.63" arrivalSpeed="12.74" duration="54.00" routeLength="567.03" waitingTime="0.00" waitingCount="0" stopTime="0.00" timeLoss="14.53" rerouteNo="0" devices="tripinfo_261 emissions_261" vType="DEFAULT_VEHTYPE" speedFactor="1.09" vaporized="">
        <emissions CO_abs="1271.95" CO2_abs="192145.16" HC_abs="8.42" PMx_abs="13.67" NOx_abs="64.27" fuel_abs="62290.43" electricity_abs="0.00"/>
    </tripinfo>